# OOMMF: rectangular mesh v1.0
# Segment count: 1
# Begin: Segment
# Begin: Header
# Title: colorbar.ovf
# Desc: OVF file for making colorbars
# meshunit:
# xbase: 0
# ybase: 0
# zbase: 0
# xstepsize: 1
# ystepsize: 0.05
# zstepsize: 1
# xnodes: 1
# ynodes: 101
# znodes: 1
# xmin: -0.5
# ymin: -0.0125
# zmin: -0.5
# xmax: 0.5
# ymax: 5.025
# zmax: 0.5
# valueunit: Ms
# valuemultiplier: 1
# ValueRangeMaxMag:  1.
# ValueRangeMinMag:  0.
# End: Header
# Begin: data text
-1.00 0 0
-0.98 0 0
-0.96 0 0
-0.94 0 0
-0.92 0 0
-0.90 0 0
-0.88 0 0
-0.86 0 0
-0.84 0 0
-0.82 0 0
-0.80 0 0
-0.78 0 0
-0.76 0 0
-0.74 0 0
-0.72 0 0
-0.70 0 0
-0.68 0 0
-0.66 0 0
-0.64 0 0
-0.62 0 0
-0.60 0 0
-0.58 0 0
-0.56 0 0
-0.54 0 0
-0.52 0 0
-0.50 0 0
-0.48 0 0
-0.46 0 0
-0.44 0 0
-0.42 0 0
-0.40 0 0
-0.38 0 0
-0.36 0 0
-0.34 0 0
-0.32 0 0
-0.30 0 0
-0.28 0 0
-0.26 0 0
-0.24 0 0
-0.22 0 0
-0.20 0 0
-0.18 0 0
-0.16 0 0
-0.14 0 0
-0.12 0 0
-0.10 0 0
-0.08 0 0
-0.06 0 0
-0.04 0 0
-0.02 0 0
 0.00 0 0
 0.02 0 0
 0.04 0 0
 0.06 0 0
 0.08 0 0
 0.10 0 0
 0.12 0 0
 0.14 0 0
 0.16 0 0
 0.18 0 0
 0.20 0 0
 0.22 0 0
 0.24 0 0
 0.26 0 0
 0.28 0 0
 0.30 0 0
 0.32 0 0
 0.34 0 0
 0.36 0 0
 0.38 0 0
 0.40 0 0
 0.42 0 0
 0.44 0 0
 0.46 0 0
 0.48 0 0
 0.50 0 0
 0.52 0 0
 0.54 0 0
 0.56 0 0
 0.58 0 0
 0.60 0 0
 0.62 0 0
 0.64 0 0
 0.66 0 0
 0.68 0 0
 0.70 0 0
 0.72 0 0
 0.74 0 0
 0.76 0 0
 0.78 0 0
 0.80 0 0
 0.82 0 0
 0.84 0 0
 0.86 0 0
 0.88 0 0
 0.90 0 0
 0.92 0 0
 0.94 0 0
 0.96 0 0
 0.98 0 0
 1.00 0 0
# End: data text
# End: segment
