# ODT 1.0
# Table Start
# Title: mmArchive Data Table, Tue May 14 03:42:19 EDT 2019
# Columns: {Oxs_EulerEvolve::Total energy} {Oxs_EulerEvolve::Energy calc count} {Oxs_EulerEvolve::Max dm/dt} Oxs_EulerEvolve::dE/dt {Oxs_EulerEvolve::Delta E} Oxs_UniformExchange:HeisenbergEx:Energy {Oxs_UniformExchange:HeisenbergEx:Max Spin Ang} {Oxs_UniformExchange:HeisenbergEx:Stage Max Spin Ang} {Oxs_UniformExchange:HeisenbergEx:Run Max Spin Ang} Oxs_DMExchange6Ngbr:DMEx:Energy Oxs_UniaxialAnisotropy:Anisotropy:Energy Oxs_TimeDriver::Iteration {Oxs_TimeDriver::Stage iteration} Oxs_TimeDriver::Stage Oxs_TimeDriver::mx   Oxs_TimeDriver::my   Oxs_TimeDriver::mz   {Oxs_TimeDriver::Last time step} {Oxs_TimeDriver::Simulation time}
# Units:                  J                                 {}                             deg/ns                     J/s                       J                                 J                                          deg                                                deg                                                  deg                                        J                                   J                                {}                            {}                          {}                   {}                   {}                   {}                          s                                 s                
                 1.151209449641047e-17                1                                980810.30075279693       -0.0003391525683739845      0                                1.1847397106149685e-17                         90.000000000000014                                 90.000000000000014                                   90.000000000000014                       -5.7581860973921501e-19                  2.4051600000000003e-19              0                             0                           0                    -1.1786062989409324e-17 -2.0689591716265966e-17 -0.69988545246277201        0                                0                         
                 1.1508636855569994e-17                2                                980633.13269655127       -0.00033905821007524192     -3.4576408404746913e-21              1.1844097428917211e-17                         89.989884436008168                                 90.000000000000014                                   90.000000000000014                       -5.7597657334888985e-19                  2.40516000001674e-19              1                             1                           0                    -1.1792797882546129e-17 -2.7586122288354622e-17 -0.69988571553070866        1.0195651485638707e-17              1.0195651485638707e-17       
                 1.1504316082305776e-17                3                                980411.58448763168       -0.00033894024779306068     -4.3207732642189442e-21              1.1839974022739062e-17                         89.977240141938609                                 90.000000000000014                                   90.000000000000014                       -5.7617394044175445e-19                  2.4051600000846887e-19              2                             2                           0                    -1.1527612184648616e-17  0                   -0.6998860443084558         1.2744564357048385e-17              2.2940215842687092e-17       
                 1.1498917112538093e-17                4                                980134.51168463042       -0.00033879277250809545     -5.398969767683729e-21              1.1834821625249802e-17                         89.961435026994195                                 90.000000000000014                                   90.000000000000014                       -5.7642051273600551e-19                  2.4051600002429482e-19              3                             3                           0                    -1.2025994790603778e-17 -2.7586122288354622e-17 -0.69988645519128123        1.5930705446310482e-17              3.8870921288997571e-17       
                 1.1492171520876204e-17                5                                979787.95611309481       -0.00033860839351060952     -6.7455916618875342e-21              1.1828384035571636e-17                         89.941679030420019                                 90.000000000000014                                   90.000000000000014                       -5.76728514750936e-19                  2.4051600005550461e-19              4                             4                           0                    -1.1844992893291115e-17 -6.8965305720886556e-18 -0.69988696865514577        1.9913381807888103e-17              5.8784303096885668e-17       
# Table End
