# ODT 1.0
# Table Start
# Title: mmArchive Data Table, Tue May 14 03:48:54 EDT 2019
# Columns: {Oxs_CGEvolve::Max mxHxm} {Oxs_CGEvolve::Total energy} {Oxs_CGEvolve::Delta E} {Oxs_CGEvolve::Bracket count} {Oxs_CGEvolve::Line min count} {Oxs_CGEvolve::Conjugate cycle count} {Oxs_CGEvolve::Cycle count} {Oxs_CGEvolve::Cycle sub count} {Oxs_CGEvolve::Energy calc count} Oxs_UZeeman::Energy  Oxs_UZeeman::B       Oxs_UZeeman::Bx      Oxs_UZeeman::By      Oxs_UZeeman::Bz      Oxs_FixedZeeman::Energy Klm_Demag_PBC::Energy Klm_UniformExchange::Energy Oxs_MinDriver::Iteration {Oxs_MinDriver::Stage iteration} Oxs_MinDriver::Stage Oxs_MinDriver::mx    Oxs_MinDriver::my    Oxs_MinDriver::mz   
# Units:              A/m                         J                          J                         {}                             {}                                {}                               {}                            {}                               {}                          J                 mT                   mT                   mT                   mT                        J                      J                        J                         {}                           {}                         {}                 {}                   {}                   {}           
              4856102.8265424632          4.2210160277943444e-17       4.2210160277943444e-17        0                              0                                 1                                1                             0                                1                          -4.2137638129280835e-20  1000.0000057057898   0                    0                    1000.0000057057898    4.6805334418588814e-22    1.1592781481587721e-18      4.1092551714569767e-17        0                            0                          0                   -0.040168051599442825  0.074675967385028949  0.0038606051329921885
              4857068.5015791086          4.2194195529197592e-17      -1.5964748745851775e-20        1                              0                                 1                                1                             0                                2                          -4.3286269859283305e-20  1000.0000057057898   0                    0                    1000.0000057057898    4.6788999262620986e-22    1.1592130873739763e-18      4.1077800821690272e-17        1                            1                          0                   -0.040216013905055664  0.074734697935469038  0.0039658415380123373
              5226484.9409392262          3.899484420091252e-17      -3.1993513282850721e-18        2                              0                                 1                                1                             0                                3                          -2.722789163139082e-19  1000.0000057057898   0                    0                    1000.0000057057898    4.3422736897635969e-22    1.1451406115830891e-18      3.8121548278274363e-17        2                            2                          0                   -0.049492706293605387  0.08622271278710178  0.024945901777930702
              5457534.0745915435          3.597282252539096e-17      -3.02202167552156e-18        3                              0                                 2                                2                             0                                4                          -5.1715934399584928e-19  1000.0000057057898   0                    0                    1000.0000057057898    4.0531030635779333e-22    1.1295189621400287e-18      3.5360057596940416e-17        3                            3                          0                   -0.058514553787857033  0.097748001382560498  0.047381583464163907
              5681115.9594865302          3.3061955132272e-17      -2.9108673931189602e-18        4                              0                                 3                                3                             0                                5                          -7.7962760834106967e-19  1000.0000057057898   0                    0                    1000.0000057057898    3.8298981908647787e-22    1.1120225025399431e-18      3.272917724825404e-17        4                            4                          0                   -0.067304167905723827  0.10931276926064235  0.071428643849226009
              5677983.191045139           3.3069751408355416e-17       7.7962760834161721e-21        4                              0                                 4                                4                             0                                6                          -7.7183133225765898e-19  990.00000564873187   0                    0                    990.00000564873187    3.8298981908647787e-22    1.1120225025399431e-18      3.272917724825404e-17        5                            0                          1                   -0.067304167905723827  0.10931276926064235  0.071428643849226009
              5574251.5626235558          3.0282397228254948e-17      -2.7873541801004687e-18        5                              0                                 4                                4                             0                                7                          -1.0441338113688053e-18  990.00000564873187   0                    0                    990.00000564873187    3.6876199710446489e-22    1.092809927124078e-18      3.0233352350502576e-17        6                            1                          1                   -0.075777768940776688  0.1207401151097784   0.096628705037203735
              5524078.0946887676          2.7476022647149931e-17      -2.8063745811050161e-18        6                              0                                 5                                5                             0                                8                          -1.3424671278251005e-18  990.00000564873187   0                    0                    990.00000564873187    3.6275952110817489e-22    1.0709161286936463e-18      2.7747210886760279e-17        7                            2                          1                   -0.084310366723360619  0.13246490663397212  0.12423777364962102
              5642051.9787384169          2.4705655917746249e-17      -2.7703667294036822e-18        7                              0                                 6                                6                             0                                9                          -1.6614643337333778e-18  990.00000564873187   0                    0                    990.00000564873187    3.6552067808447754e-22    1.0466873070195222e-18      2.532006742378202e-17        8                            3                          1                   -0.092709984807273632  0.14415053084537613  0.15375916887864247
              5667541.9261455266          2.207753305933385e-17      -2.6281228584123992e-18        8                              0                                 7                                7                             0                                10                         -1.9875519432542819e-18  990.00000564873187   0                    0                    990.00000564873187    3.7593324160574586e-22    1.0213346835430009e-18      2.3043374385803527e-17        9                            4                          1                   -0.10061858935573102  0.15521968873117276  0.18393674103807203
              5662151.8570063803          2.2097609341588946e-17       2.0076282255095718e-20        8                              0                                 8                                8                             0                                11                         -1.9674756609991877e-18  980.00000559167404   0                    0                    980.00000559167404    3.7593324160574586e-22    1.0213346835430009e-18      2.3043374385803527e-17        10                           0                          2                   -0.10061858935573102  0.15521968873117276  0.18393674103807203
              5355583.3932598131          1.9589524759235132e-17      -2.5080845823538141e-18        9                              0                                 8                                8                             0                                12                         -2.2964786662862691e-18  980.00000559167404   0                    0                    980.00000559167404    3.9192339164172376e-22    9.9522479807224444e-19      2.0890386704057515e-17        11                           1                          2                   -0.10808276527522301  0.16566430314173072  0.21469480416628586
              5174263.8565320177          1.7070166184304015e-17      -2.5193585749311164e-18        10                             0                                 9                                9                             0                                13                         -2.6492849075918701e-18  980.00000559167404   0                    0                    980.00000559167404    4.1227507863065282e-22    9.674926326587859e-19      1.8751546184158469e-17        12                           2                          2                   -0.11539710304244492  0.17588341193452711  0.24767820087610196
              5226151.8601565734          1.4623095781973787e-17      -2.4470704023302281e-18        11                             0                                 10                               10                            0                                14                         -3.0160534312634317e-18  980.00000559167404   0                    0                    980.00000559167404    4.3367485414269419e-22    9.3940440563123338e-19      1.6699311132751844e-17        13                           3                          2                   -0.12224288841835641  0.18544660804407267  0.28196691320773565
              5350878.0677252142          1.2373473344941007e-17      -2.2496224370327803e-18        12                             0                                 11                               11                            0                                15                         -3.3777898663032777e-18  980.00000559167404   0                    0                    980.00000559167404    4.5148136650754033e-22    9.1250373091326085e-19      1.4838307998964517e-17        14                           4                          2                   -0.12822669070394585  0.19383765128591704  0.31578518211692702
              5345645.7339394875          1.2407940588474713e-17       3.4467243533705901e-20        12                             0                                 12                               12                            0                                16                         -3.343322622769571e-18  970.00000553461621   0                    0                    970.00000553461621    4.5148136650754033e-22    9.1250373091326085e-19      1.4838307998964517e-17        15                           0                          3                   -0.12822669070394585  0.19383765128591704  0.31578518211692702
              5718021.0476563238          1.0388955065407835e-17      -2.0189855230668783e-18        13                             0                                 12                               12                            0                                17                         -3.6878126947325953e-18  970.00000553461621   0                    0                    970.00000553461621    4.6250787382684327e-22    8.8691909070809779e-19      1.3189386161558506e-17        16                           1                          3                   -0.13330870038150358  0.20099419681735778  0.34832313085434224
              5867141.25055141            8.6596860668766594e-18      -1.7292689985311751e-18        14                             0                                 13                               13                            0                                18                         -4.0047461910632281e-18  970.00000553461621   0                    0                    970.00000553461621    4.6557181839946374e-22    8.6310628835033143e-19      1.1800860397771156e-17        17                           2                          3                   -0.13737774429857524  0.2067328202541627   0.37825829211461443
              5803875.4011884555          7.1190916408264947e-18      -1.5405944260501647e-18        15                             0                                 14                               14                            0                                19                         -4.3073207983173018e-18  970.00000553461621   0                    0                    970.00000553461621    4.6158525008459772e-22    8.3948336434207102e-19      1.058646748955164e-17        18                           3                          3                   -0.14074788226037882  0.21143317623973937  0.40683722039540771
              5541146.072682838           5.7014651967333943e-18      -1.4176264440931005e-18        16                             0                                 15                               15                            0                                20                         -4.6055935132745512e-18  970.00000553461621   0                    0                    970.00000553461621    4.5119431504335289e-22    8.1480928460335616e-19      9.4917982310895469e-18        19                           4                          3                   -0.14359685925633919  0.21528587014429987  0.43500982419134637
              5533321.1499894438          5.7489455422310704e-18       4.7480345497676127e-20        16                             0                                 16                               16                            0                                21                         -4.5581131677768758e-18  960.00000547755826   0                    0                    960.00000547755826    4.5119431504335289e-22    8.1480928460335616e-19      9.4917982310895469e-18        20                           0                          4                   -0.14359685925633919  0.21528587014429987  0.43500982419134637
              5270864.4469492575          4.4102711080084476e-18      -1.3386744342226228e-18        17                             0                                 16                               16                            0                                22                         -4.8568645802937346e-18  960.00000547755826   0                    0                    960.00000547755826    4.3465849263668723e-22    7.8800109529317521e-19      8.4786999345163691e-18        21                           1                          4                   -0.14603923950244344  0.21838994589178307  0.46352157777276526
              5208555.8185172277          3.1498773251378457e-18      -1.2603937828706019e-18        18                             0                                 17                               17                            0                                23                         -5.1590626465848157e-18  960.00000547755826   0                    0                    960.00000547755826    4.1279079322726273e-22    7.5881509991777549e-19      7.5497120810116572e-18        22                           2                          4                   -0.14802111735835749  0.22064534242992453  0.49236226751640411
              4965254.2882878687          2.0135704918831208e-18      -1.1363068332547248e-18        19                             0                                 18                               18                            0                                24                         -5.4518434578140331e-18  960.00000547755826   0                    0                    960.00000547755826    3.8780036748039373e-22    7.2857195057291264e-19      6.7364541987567603e-18        23                           3                          4                   -0.14945656886648975  0.22196128754910543  0.52030420851949244
              4546137.3324821582          9.5707116245299739e-19      -1.0564993294301235e-18        20                             0                                 19                               19                            0                                25                         -5.7439730957959678e-18  960.00000547755826   0                    0                    960.00000547755826    3.6045683746043414e-22    6.9663249087832522e-19      6.0040513105331797e-18        24                           4                          4                   -0.15039712580930223  0.22242546860551868  0.54818400390456046
              4538812.5288516134          1.0169042155342052e-18       5.9833053081207829e-20        20                             0                                 20                               20                            0                                26                         -5.6841400427147598e-18  950.00000542050043   0                    0                    950.00000542050043    3.6045683746043414e-22    6.9663249087832522e-19      6.0040513105331797e-18        25                           0                          5                   -0.15039712580930223  0.22242546860551868  0.54818400390456046
              3991938.806329716           9.1622088497102567e-21      -1.0077420066844949e-18        21                             0                                 20                               20                            0                                27                         -5.9809042627334038e-18  950.00000542050043   0                    0                    950.00000542050043    3.3114685007214951e-22    6.6228877960773669e-19      5.3274465451253054e-18        26                           1                          5                   -0.15085539226625239  0.22206044558805157  0.57680423442719486
              3635747.2917057769         -9.8095908774228929e-19      -9.9012129659199963e-19        22                             0                                 21                               21                            0                                28                         -6.2962836841357728e-18  950.00000542050043   0                    0                    950.00000542050043    3.0037009951552606e-22    6.2448586796408294e-19      4.6905383583298847e-18        27                           2                          5                   -0.15071257616633491  0.22071753240745287  0.60721973310848421
              3639600.9543689555         -1.9084679137118478e-18      -9.2750882596955855e-19        23                             0                                 22                               22                            0                                29                         -6.6171924790307794e-18  950.00000542050043   0                    0                    950.00000542050043    2.7111536808876056e-22    5.8501903563405651e-19      4.1234344143167851e-18        28                           3                          5                   -0.1498619257763853   0.21835356673224113  0.63816848995679609
              3521362.3978231717         -2.7023423180699632e-18      -7.9387440435811539e-19        24                             0                                 23                               23                            0                                30                         -6.9137098014227793e-18  950.00000542050043   0                    0                    950.00000542050043    2.4735743787552265e-22    5.4786640484058681e-19      3.6632537210743552e-18        29                           4                          5                   -0.14841938532498719  0.21529506033794948  0.66676490943175926
              3514501.1799211502         -2.6295664254234066e-18       7.2775892646556658e-20        24                             0                                 24                               24                            0                                31                         -6.8409339087762234e-18  940.00000536344237   0                    0                    940.00000536344237    2.4735743787552265e-22    5.4786640484058681e-19      3.6632537210743552e-18        30                           0                          6                   -0.14841938532498719  0.21529506033794948  0.66676490943175926
              3285613.7278216816         -3.3420182050052375e-18      -7.1245177958183089e-19        25                             0                                 24                               24                            0                                32                         -7.1211985004895146e-18  940.00000536344237   0                    0                    940.00000536344237    2.2830071966831169e-22    5.1170367118055045e-19      3.2672483235840591e-18        31                           1                          6                   -0.14648055766133486  0.21165071380245956  0.69408144217459222
              3102720.6278882674         -4.0181244522715015e-18      -6.7610624726626401e-19        26                             0                                 25                               25                            0                                33                         -7.3994481642571251e-18  940.00000536344237   0                    0                    940.00000536344237    2.1346921534482601e-22    4.750553735170299e-19      2.906054869253249e-18        32                           2                          6                   -0.14397322148116506  0.20731869549359649  0.7212015860519384 
              3557188.0109167737         -4.6610055669231517e-18      -6.4288111465165026e-19        27                             0                                 26                               26                            0                                34                         -7.6721635350431181e-18  940.00000536344237   0                    0                    940.00000536344237    2.0316731430922633e-22    4.3826724339591334e-19      2.5726875574097431e-18        33                           3                          6                   -0.1409087712523196   0.20235822039020082  0.74778231931549077
              3790103.5125067723         -5.1715424526453753e-18      -5.1053688572222362e-19        28                             0                                 27                               27                            0                                35                         -7.8925006004575913e-18  940.00000536344237   0                    0                    940.00000536344237    1.9820638206745453e-22    4.0783143328503204e-19      2.3129285081451177e-18        34                           4                          6                   -0.13792951179566418  0.1977771667488247   0.76925789932030086
# Table End
