# ODT 1.0
# Table Start
# Title: mmArchive Data Table, Sun Sep 15 16:44:19 EDT 2019
# Columns: {Oxs_RungeKuttaEvolve:evolver:Total energy} {Oxs_RungeKuttaEvolve:evolver:Energy calc count} {Oxs_RungeKuttaEvolve:evolver:Max dm/dt} Oxs_RungeKuttaEvolve:evolver:dE/dt {Oxs_RungeKuttaEvolve:evolver:Delta E} PBC_Exchange_2D::Energy PBC_Demag_2D::Energy Oxs_TimeDriver::Iteration {Oxs_TimeDriver::Stage iteration} Oxs_TimeDriver::Stage Oxs_TimeDriver::mx   Oxs_TimeDriver::my   Oxs_TimeDriver::mz   {Oxs_TimeDriver::Last time step} {Oxs_TimeDriver::Simulation time}
# Units:                        J                                             {}                                         deg/ns                                 J/s                                   J                               J                     J                      {}                            {}                          {}                   {}                   {}                   {}                          s                                 s                
                       9.9136935534720487e-21                            1                                            2286.8514082128863                   -2.4917253999358286e-10                  0                              0                      9.9136935534720487e-21    0                             0                           0                     0.57735026918962573  0.57735026918962573  0.57735026918962573        0                                0                         
                       9.9126583907922336e-21                            7                                            2286.9712916553549                   -2.4919866538567056e-10                 -1.0351626798138024e-24            0                      9.9126583907922336e-21    1                             1                           0                     0.57741081308206021  0.57721512024145571  0.57742485043558334        4.1541833307936684e-15              4.1541833307936684e-15       
                       9.9085166552889552e-21                            13                                           2287.4503850818023                   -2.4930308466564946e-10                 -4.1417355032786733e-24            0                      9.9085166552889552e-21    2                             2                           0                     0.577652988611846    0.57667428646435381  0.57772293712352363        1.6616733323174674e-14              2.0770916653968343e-14       
                       9.8919323951127777e-21                            19                                           2289.3596989173157                   -2.4971944034916755e-10                 -1.6584260176178071e-23            0                      9.8919323951127777e-21    3                             3                           0                     0.57862168785314816  0.57450714928380042  0.57891145935088806        6.6466933292698694e-14              8.7237849946667031e-14       
                       9.8253207473863577e-21                            25                                           2296.8830810707855                   -2.5136341247564584e-10                 -6.6611647726420333e-23            0                      9.8253207473863577e-21    4                             4                           0                     0.5824962951922994   0.5657781382192737   0.58360360211395035        2.6586773317079478e-13              3.5310558311746178e-13       
# Table End
