# ODT 1.0
# Table Start
# Title: mmArchive Data Table, Wed May 15 00:50:31 EDT 2019
# Columns: {Oxs_RungeKuttaEvolve:evolver:Total energy} {Oxs_RungeKuttaEvolve:evolver:Energy calc count} {Oxs_RungeKuttaEvolve:evolver:Max dm/dt} Oxs_RungeKuttaEvolve:evolver:dE/dt {Oxs_RungeKuttaEvolve:evolver:Delta E} PBC_Exchange_2D::Energy PBC_Demag_2D::Energy Oxs_TimeDriver::Iteration {Oxs_TimeDriver::Stage iteration} Oxs_TimeDriver::Stage Oxs_TimeDriver::mx   Oxs_TimeDriver::my   Oxs_TimeDriver::mz   {Oxs_TimeDriver::Last time step} {Oxs_TimeDriver::Simulation time}
# Units:                        J                                             {}                                         deg/ns                                 J/s                                   J                               J                     J                      {}                            {}                          {}                   {}                   {}                   {}                          s                                 s                
                       4.0606488795021511e-17                            1                                            4593.5514336947972                   -4.1179531478388716e-06                  0                              0                      4.0606488795021511e-17    0                             0                           0                     0.57735026918961907  0.57735026918961907  0.57735026918961907        0                                0                         
                       4.059797283431798e-17                            7                                            4593.3105378880009                   -4.1175212503631033e-06                 -8.5159607035271111e-21            1.6027037958521192e-46    4.059797283431798e-17    1                             1                           0                     0.57748539432925128  0.57727566413513509  0.57728972529720102        2.0681166058825922e-15              2.0681166058825922e-15       
                       4.0563917927858085e-17                            13                                           4592.3460711849757                   -4.1157923033694251e-06                 -3.405490645990055e-20            3.9265386866442927e-45    4.0563917927858085e-17    2                             2                           0                     0.57802565670186223  0.57697700604253921  0.57704754976741002        8.2724664235303687e-15              1.034058302941296e-14       
                       4.042784159724306e-17                            19                                           4588.4740977279325                   -4.108854881801382e-06                 -1.3607633061501982e-19            6.8588085931055607e-44    4.042784159724306e-17    3                             3                           0                     0.58018288961198128  0.5757785794746344   0.57607885052279562        3.3089865694121475e-14              4.3430448723534437e-14       
                       3.9885848840940897e-17                            25                                           4572.7623607196774                   -4.0807641839879464e-06                 -5.4199275630216813e-19            1.0845900209311186e-42    3.9885848840940897e-17    4                             4                           0                     0.5887504045590114   0.57092492173019682  0.57220424227627731        1.323594627764859e-13              1.7578991150002033e-13       
# Table End
