# ODT 1.0
# Table Start
# Title: mmArchive Data Table, Sun Sep 15 16:44:20 EDT 2019
# Columns: {Oxs_RungeKuttaEvolve:evolver:Total energy} {Oxs_RungeKuttaEvolve:evolver:Energy calc count} {Oxs_RungeKuttaEvolve:evolver:Max dm/dt} Oxs_RungeKuttaEvolve:evolver:dE/dt {Oxs_RungeKuttaEvolve:evolver:Delta E} PBC_Exchange_2D::Energy PBC_Demag_2D::Energy Oxs_Demag::Energy    Oxs_TimeDriver::Iteration {Oxs_TimeDriver::Stage iteration} Oxs_TimeDriver::Stage Oxs_TimeDriver::mx   Oxs_TimeDriver::my   Oxs_TimeDriver::mz   {Oxs_TimeDriver::Last time step} {Oxs_TimeDriver::Simulation time}
# Units:                        J                                             {}                                         deg/ns                                 J/s                                   J                               J                     J                   J                       {}                            {}                          {}                   {}                   {}                   {}                          s                                 s                
                       3.9829828774728409e-19                            1                                            0                                     0                                    0                              2.1977786002139455e-19    7.1725544685213773e-20  1.0679488304067575e-19    0                             0                           0                     0.78867513459481287  0.28867513459481287  0.28867513459481287        0                                0                         
# Table End
