# ODT 1.0
# Table Start
# Title: mmArchive Data Table, Sun Sep 15 16:44:21 EDT 2019
# Columns: {Oxs_RungeKuttaEvolve:evolver:Total energy} {Oxs_RungeKuttaEvolve:evolver:Energy calc count} {Oxs_RungeKuttaEvolve:evolver:Max dm/dt} Oxs_RungeKuttaEvolve:evolver:dE/dt {Oxs_RungeKuttaEvolve:evolver:Delta E} PBC_Demag_2D::Energy PBC_Exchange_2D::Energy Oxs_ExchangePtwise::Energy {Oxs_ExchangePtwise::Max Spin Ang} {Oxs_ExchangePtwise::Stage Max Spin Ang} {Oxs_ExchangePtwise::Run Max Spin Ang} PBC_ExchangePtwise_2D::Energy Oxs_Demag::Energy    Oxs_TimeDriver::Iteration {Oxs_TimeDriver::Stage iteration} Oxs_TimeDriver::Stage Oxs_TimeDriver::mx   Oxs_TimeDriver::my   Oxs_TimeDriver::mz   {Oxs_TimeDriver::Last time step} {Oxs_TimeDriver::Simulation time}
# Units:                        J                                             {}                                         deg/ns                                 J/s                                   J                             J                      J                        J                             deg                                   deg                                     deg                                 J                       J                       {}                            {}                          {}                   {}                   {}                   {}                          s                                 s                
                       7.2796507777937591e-19                            1                                            35372.014354958927                   -1.0775715864083043e-07                  0                             7.1725544685213773e-20   2.1977786002139455e-19       1.0988893001069727e-19            54.735610317245353                    54.735610317245353                      54.735610317245353                2.1977786002139455e-19       1.0679488304067575e-19    0                             0                           0                     0.78867513459481287  0.28867513459481287  0.28867513459481287        0                                0                         
                       7.2793613731021196e-19                            7                                            35371.778698093083                   -1.0775498674634959e-07                 -2.8940469164022948e-23           7.1728359108652574e-20   2.1976386154870066e-19       1.0988100719931393e-19            54.733488671542439                    54.735610317245353                      54.735610317245353                2.1976386154870061e-19       1.0679904790484416e-19    1                             1                           0                     0.78868479472226416  0.28866445878754315  0.2886827325280546         2.6857390434899454e-16              2.6857390434899454e-16       
                       7.2782038126730139e-19                            13                                           35370.822167269158                   -1.0774629766748441e-07                 -1.1575604291057971e-22           7.1739607236798683e-20   2.1970788767594601e-19       1.0984930062459267e-19            54.724993469671297                    54.735610317245353                      54.735610317245353                2.1970788767594601e-19       1.0681569805401801e-19    2                             2                           0                     0.78872343194810646  0.28862174900570897  0.28871311763959923        1.0742956173959782e-15              1.3428695217449727e-15       
                       7.2735745048186364e-19                            19                                           35366.773636352911                   -1.0771151644978276e-07                 -4.6293078543778397e-22           7.1784445391376074e-20   2.1948431325464779e-19       1.0972223028931366e-19            54.690875185640436                    54.735610317245353                      54.735610317245353                2.1948431325464779e-19       1.0688214829187828e-19    3                             3                           0                     0.78887792767623655  0.28845080507473875  0.28883455197186264        4.2971824695839126e-15              5.6400519913288853e-15       
                       7.255072248038092e-19                            25                                           35347.024281345097                   -1.0757193675976069e-07                 -1.8502256780544123e-21           7.1961245326754272e-20   2.1859520211416526e-19       1.09210122995256e-19            54.552229876008397                    54.735610317245353                      54.735610317245353                2.1859520211416526e-19       1.0714545225346839e-19    4                             4                           0                     0.7894950194756073   0.28776535516187551  0.28931858078202966        1.7188729878335651e-14              2.2828781869664534e-14       
                       7.255072248038092e-19                            26                                           35347.024281345097                   -1.0757193675976069e-07                  0                             7.1961245326754272e-20   2.1859520211416526e-19       1.09210122995256e-19            54.552229876008397                    54.552229876008397                      54.735610317245353                2.1859520211416526e-19       1.0714545225346839e-19    5                             0                           1                     0.7894950194756073   0.28776535516187551  0.28931858078202966        0                                2.2828781869664534e-14       
                       7.1813057247098148e-19                            32                                           35211.439046530184                   -1.0700284326263945e-07                 -7.3766523328277407e-21           7.2622501571847263e-20   2.1512475172771205e-19       1.0710546678442247e-19            53.964655340663178                    54.552229876008397                      54.735610317245353                2.1512475172771202e-19       1.0815310065928766e-19    6                             1                           1                     0.79194658667479434  0.28499695773534978  0.2912267421188115         6.8754919513342602e-14              9.1583701383007137e-14       
                       6.8904963845487544e-19                            38                                           33803.018043484466                   -1.043663432995103e-07                 -2.9080934016105914e-20           7.4267361906807015e-20   2.0276798567759063e-19       9.8086299553748049e-20            51.197163482340194                    54.552229876008397                      54.735610317245353                2.0276798567759061e-19       1.1116000563913916e-19    7                             2                           1                     0.80133555625486008  0.2735124660861375   0.29838982907636014        2.7501967805337041e-13              3.6660337943637753e-13       
                       6.5175964552391545e-19                            44                                           30181.875615764809                   -9.9458253945016098e-08                 -3.7289992930960149e-20           7.3334589974637882e-20   1.9040257471957309e-19       8.5768493328746447e-20            46.940146525563797                    54.552229876008397                      54.735610317245353                1.9040257471957309e-19       1.1185141278138488e-19    8                             3                           1                     0.81226045851870032  0.25729872718109886  0.30677864968687812        3.6543066949629091e-13              7.320340489326685e-13       
                       6.23556482102309e-19                            50                                           29057.869643275335                   -9.4371633089520555e-08                 -2.8203163421606384e-20           7.0208017812702313e-20   1.8357324258619659e-19       7.6477459781108396e-20            43.40052193380992                     54.552229876008397                      54.735610317245353                1.8357324258619656e-19       1.0972451933610511e-19    9                             4                           1                     0.81949811786017634  0.24365072331928941  0.31268554702441664        2.9079473293699601e-13              1.0228287818696646e-12       
                       6.23556482102309e-19                            51                                           29057.869643275335                   -9.4371633089520555e-08                  0                             7.0208017812702313e-20   1.8357324258619659e-19       7.6477459781108396e-20            43.40052193380992                     43.40052193380992                       54.735610317245353                1.8357324258619656e-19       1.0972451933610511e-19    10                            0                           2                     0.81949811786017634  0.24365072331928941  0.31268554702441664        0                                1.0228287818696646e-12       
                       5.907683037043969e-19                            57                                           30109.578258708083                   -8.7098180504236683e-08                 -3.2788178397912053e-20           6.4554048267809026e-20   1.77647261813402e-19       6.6159472769344985e-20            39.022136862595289                    43.40052193380992                       54.735610317245353                1.7764726181340198e-19       1.0476025904043896e-19    11                            1                           2                     0.82700758428675902  0.22582178349439691  0.31929782109402205        3.6118567775421097e-13              1.3840144596238757e-12       
                       5.6080627941915437e-19                            63                                           29887.06184970203                    -7.9712651164052453e-08                 -2.9962024285242511e-20           5.8790644604427443e-20   1.7265357867778288e-19       5.7669227760264267e-20            34.926800192042919                    43.40052193380992                       54.735610317245353                1.7265357867778286e-19       9.9039249698896973e-20    12                            2                           2                     0.83361580211687691  0.20727009185803122  0.3252982339134104         3.594422851379594e-13              1.743456744761835e-12       
                       5.3926684884368406e-19                            69                                           29205.740543287498                   -7.4646141862475153e-08                 -2.1539430575470378e-20           5.5496656137126442e-20   1.6790076660448389e-19       5.2436289702393555e-20            32.229799959563053                    43.40052193380992                       54.735610317245353                1.6790076660448389e-19       9.5532369795196261e-20    13                            3                           2                     0.83874181593910568  0.19243182938280826  0.32971932476774563        2.7937203710782962e-13              2.0228287818696646e-12       
                       5.3926684884368406e-19                            70                                           29205.740543287498                   -7.4646141862475153e-08                  0                             5.5496656137126442e-20   1.6790076660448389e-19       5.2436289702393555e-20            32.229799959563053                    32.229799959563053                      54.735610317245353                1.6790076660448389e-19       9.5532369795196261e-20    14                            0                           3                     0.83874181593910568  0.19243182938280826  0.32971932476774563        0                                2.0228287818696646e-12       
                       5.1267408972244076e-19                            76                                           29719.6009722569                     -6.9676408806010843e-08                 -2.65927591212433e-20           5.3845356324708847e-20   1.5890008947228802e-19       4.726027418576172e-20            29.8132385652669                      32.229799959563053                      54.735610317245353                1.58900089472288e-19       9.3768280267394155e-20    15                            1                           3                     0.84608764943707027  0.17234006076801675  0.33538107781134391        3.6949462050718341e-13              2.3923234023768481e-12       
                       4.8698098268766264e-19                            82                                           30199.538944570213                   -6.6590014637035084e-08                 -2.5693107034778078e-20           5.5119786204175205e-20   1.4627160975398075e-19       4.3742325293753876e-20            28.918770487384563                    32.229799959563053                      54.735610317245353                1.4627160975398075e-19       9.5575651681772075e-20    16                            2                           3                     0.85438315194634251  0.15122621750039275  0.34086609692566561        3.7789710360569688e-13              2.7702205059825448e-12       
                       4.7034976535012541e-19                            88                                           29939.179820130237                   -6.5120926953506459e-08                 -1.6631217337537202e-20           5.6807356499196185e-20   1.3666718498174086e-19       4.2214012066929577e-20            29.014816339833821                    32.229799959563053                      54.735610317245353                1.3666718498174086e-19       9.7994026820517939e-20    17                            3                           3                     0.86011596832978943  0.1367771025482041   0.34419643062684946        2.5260827588711969e-13              3.0228287818696648e-12       
                       4.7034976535012541e-19                            89                                           29939.179820130237                   -6.5120926953506459e-08                  0                             5.6807356499196185e-20   1.3666718498174086e-19       4.2214012066929577e-20            29.014816339833821                    29.014816339833821                      54.735610317245353                1.3666718498174086e-19       9.7994026820517939e-20    18                            0                           4                     0.86011596832978943  0.1367771025482041   0.34419643062684946        0                                3.0228287818696648e-12       
                       4.4591275811122788e-19                            95                                           28659.898996145788                   -6.2820061586303804e-08                 -2.4437007238897599e-20           5.9007068601498023e-20   1.2226909927551132e-19       4.081882451475466e-20            29.651482469363177                    29.651482469363177                      54.735610317245353                1.2226909927551132e-19       1.0154866644395253e-19    19                            1                           4                     0.86838273163249713  0.11444551235538755  0.34844191950733056        3.8180473424556235e-13              3.404633516115227e-12       
                       4.2111303057113484e-19                            101                                          26201.782075326239                   -5.9492306100115608e-08                 -2.4799727540093069e-20           5.9330971690559908e-20   1.0926858897313831e-19       4.007622980491578e-20            30.430322839926113                    30.430322839926113                      54.735610317245353                1.0926858897313831e-19       1.031686511293825e-19    20                            2                           4                     0.87580792096839477  0.090162520566054713  0.35167832514277503        4.0496445529159895e-13              3.8095979714068259e-12       
                       4.0865831987194139e-19                            107                                          24577.973510119293                   -5.7276083504824006e-08                 -1.2454710699193414e-20           5.8409682090404869e-20   1.0381467501767907e-19       3.9850073708448312e-20            30.784954425414348                    30.784954425414348                      54.735610317245353                1.0381467501767905e-19       1.0276921403773008e-19    21                            3                           4                     0.87899271991869143  0.077154272529177656  0.35281978243648188        2.1323081046283859e-13              4.0228287818696645e-12       
                       4.0865831987194139e-19                            108                                          24577.973510119293                   -5.7276083504824006e-08                  0                             5.8409682090404869e-20   1.0381467501767907e-19       3.9850073708448312e-20            30.784954425414348                    30.784954425414348                      54.735610317245353                1.0381467501767905e-19       1.0276921403773008e-19    22                            0                           5                     0.87899271991869143  0.077154272529177656  0.35281978243648188        0                                4.0228287818696645e-12       
                       3.8733981612825106e-19                            114                                          21788.333191489266                   -5.2602553892640475e-08                 -2.1318503743690304e-20           5.5100761021506781e-20   9.6313087745248261e-20       3.9496641448573971e-20            31.400296064102246                    31.400296064102246                      54.735610317245353                9.6313087745248261e-20       1.0011623816767379e-19    23                            1                           5                     0.883594657604448    0.053191854305627596  0.35392067253008108        3.8772225288114396e-13              4.4105510347508081e-12       
                       3.6697305977768975e-19                            120                                          20630.227762692219                   -4.7510995328078078e-08                 -2.0366756350561324e-20           5.0778149532177201e-20   9.0701398117782345e-20       3.8604914248641504e-20            31.470413290989864                    31.470413290989864                      54.735610317245353                9.0701398117782333e-20       9.6187199761306336e-20    24                            2                           5                     0.88736198849541714  0.027775285169235695  0.35388827557811564        4.071885892253428e-13              4.8177396239761514e-12       
                       3.5746884800048561e-19                            126                                          19588.489406131001                   -4.5221364982115752e-08                 -9.5042117772041096e-21           4.8966805643759774e-20   8.816188377870611e-20       3.766242608110972e-20            31.148710739078769                    31.470413290989864                      54.735610317245353                8.8161883778706098e-20       9.4515848718203936e-20    25                            3                           5                     0.88912868152369284  0.01494243375782396  0.35350597617622576        2.0508915789351322e-13              5.0228287818696643e-12       
                       3.5746884800048561e-19                            127                                          19588.489406131001                   -4.5221364982115752e-08                  0                             4.8966805643759774e-20   8.816188377870611e-20       3.766242608110972e-20            31.148710739078769                    31.148710739078769                      54.735610317245353                8.8161883778706098e-20       9.4515848718203936e-20    26                            0                           6                     0.88912868152369284  0.01494243375782396  0.35350597617622576        0                                5.0228287818696643e-12       
                       3.396244306324272e-19                            133                                          17243.061486137532                   -4.1631060274384197e-08                 -1.7844417368058401e-20           4.7067120055961805e-20   8.2607393089582566e-20       3.4454260952628672e-20            29.662266113336784                    31.148710739078769                      54.735610317245353                8.2607393089582554e-20       9.2888263444671636e-20    27                            1                           6                     0.89284255484473773 -0.010824151345344216  0.3521692531403357         4.1210394412189365e-13              5.4349327259915578e-12       
                       3.2185752060679659e-19                            139                                          18395.042119537778                   -3.9116507437083953e-08                 -1.7766910025630673e-20           4.7558565402125711e-20   7.5508431351499383e-20       2.9546639052694714e-20            27.013513746004026                    31.148710739078769                      54.735610317245353                7.5508431351499371e-20       9.3735453448977402e-20    28                            2                           6                     0.8971337555463228  -0.038319480871319242  0.34998198218497178        4.4109169321200894e-13              5.8760244192035674e-12       
                       3.161649508317227e-19                            145                                          19060.36773903287                    -3.844312010673715e-08                 -5.6925697750738402e-21           4.8055018031010963e-20   7.2974078626607704e-20       2.7803749822121659e-20            25.991793511518221                    31.148710739078769                      54.735610317245353                7.2974078626607691e-20       9.4358025725374699e-20    29                            3                           6                     0.89855114006649528 -0.047443675103489333  0.34906677427574773        1.4680436266609729e-13              6.0228287818696641e-12       
                       3.161649508317227e-19                            146                                          19060.36773903287                    -3.844312010673715e-08                  0                             4.8055018031010963e-20   7.2974078626607704e-20       2.7803749822121659e-20            25.991793511518221                    25.991793511518221                      54.735610317245353                7.2974078626607691e-20       9.4358025725374699e-20    30                            0                           7                     0.89855114006649528 -0.047443675103489333  0.34906677427574773        0                                6.0228287818696641e-12       
                       3.0090258009714633e-19                            152                                          20770.921600041234                   -3.6595124639166666e-08                 -1.5262370734576404e-20           4.9400515897210948e-20   6.6095482187847684e-20       2.3319810985154421e-20            23.163018473598928                    25.991793511518221                      54.735610317245353                6.6095482187847672e-20       9.5991288839085603e-20    31                            1                           7                     0.90208223194842085 -0.072631671726600719  0.34595027185127741        4.0670418870278308e-13              6.4295329705724472e-12       
                       2.8494009810109839e-19                            158                                          21791.586612990235                   -3.4089742393549652e-08                 -1.596248199604792e-20           4.9622627360933063e-20   5.9716190293482387e-20       1.960314619146871e-20            20.639055180757392                    25.991793511518221                      54.735610317245353                5.9716190293482375e-20       9.6281943961731855e-20    32                            2                           7                     0.90478861347970041 -0.10036234732001585  0.3413145367542188         4.5102356539180112e-13              6.8805565359642487e-12       
                       2.8015596247230547e-19                            164                                          21806.556885735226                   -3.3152204590642152e-08                 -4.784135628792931e-21           4.9282735645816107e-20   5.8105163543057288e-20       1.8763758351160749e-20            20.100354056903317                    25.991793511518221                      54.735610317245353                5.8105163543057288e-20       9.589914138921405e-20    33                            3                           7                     0.90532394390337001 -0.10904837771044783  0.33956295661044383        1.4227224590541572e-13              7.0228287818696639e-12       
                       2.8015596247230547e-19                            165                                          21806.556885735226                   -3.3152204590642152e-08                  0                             4.9282735645816107e-20   5.8105163543057288e-20       1.8763758351160749e-20            20.100354056903317                    20.100354056903317                      54.735610317245353                5.8105163543057288e-20       9.589914138921405e-20    34                            0                           8                     0.90532394390337001 -0.10904837771044783  0.33956295661044383        0                                7.0228287818696639e-12       
# Table End
