# OOMMF: rectangular mesh v1.0
# Segment count: 1
# Begin: Segment
# Begin: Header
# Title: Oxs_Demag::Field
# Desc: Oxs vector field output
# Desc: MIF source file: C:/programs/oommf_old/simus/DW-150-8-transverse/DW_edgefield/dw_edgefield.mif
# Desc: Iteration: 0, State id: 422709
# Desc: Stage: 0, Stage iteration: 0
# Desc: Stage simulation time: 0 s
# Desc: Total simulation time: 0 s
# meshtype: rectangular
# meshunit: m
# xbase: 2e-009
# ybase: 2e-009
# zbase: 4e-009
# xstepsize: 4e-009
# ystepsize: 4e-009
# zstepsize: 8.000000000000001e-009
# xnodes: 1250
# ynodes: 40
# znodes: 1
# xmin: 0
# ymin: 0
# zmin: 0
# xmax: 5e-006
# ymax: 1.6e-007
# zmax: 8.000000000000001e-009
# valueunit: A/m
# valuemultiplier: 258967.81743932367
# ValueRangeMinMag: 1.236282534292632e-016
# ValueRangeMaxMag: 1.0000000000000002
# End: Header
# Begin: Data Text
-0.80970290398147826  0.52656201821511806  0.00000000000000000
-0.35160040175526630  0.27160308540419120  0.00000000000000000
-0.21510884281751494  0.17277383167234533  0.00000000000000000
-0.15249685896875664  0.12364348325897832  0.00000000000000000
-0.11717660364205208  0.094781798799299183  0.00000000000000000
-0.094755470341757284  0.075855469011050919  0.00000000000000000
-0.079331814384450944  0.062648979401382893  0.00000000000000000
-0.068081315004940079  0.052868787063100692  0.00000000000000000
-0.059351380552693893  0.045311433425296782  0.00000000000000000
-0.052754220953081493  0.039435113917633019  0.00000000000000000
-0.047218462110153722  0.034604713687585276  0.00000000000000000
-0.042660151160724954  0.030652864133076288  0.00000000000000000
-0.038965144043932511  0.027363566807898417  0.00000000000000000
-0.035664753407231117  0.024578036416299263  0.00000000000000000
-0.032877793562929407  0.022158097615415442  0.00000000000000000
-0.030517999950864991  0.020080369797138092  0.00000000000000000
-0.028308210282382843  0.018286621733377049  0.00000000000000000
-0.026457713588412975  0.016660555448639019  0.00000000000000000
-0.024715374625606617  0.015291339526961264  0.00000000000000000
-0.023215257740805271  0.013991604556456623  0.00000000000000000
-0.021814700835120077  0.012913199248829383  0.00000000000000000
-0.020658523684192211  0.011951912351424414  0.00000000000000000
-0.019400212773790736  0.010984246798654668  0.00000000000000000
-0.018426710967194507  0.010245997456342434  0.00000000000000000
-0.017396577033907089  0.0094423784915728861  0.00000000000000000
-0.016606520010749217  0.0088125578627842177  0.00000000000000000
-0.015694781203947499  0.0082253805085462425  0.00000000000000000
-0.015007847032334614  0.0076547859942980292  0.00000000000000000
-0.014280395606528001  0.0071497768734224672  0.00000000000000000
-0.013577874948817074  0.0066690267905049868  0.00000000000000000
-0.013037114517835523  0.0062798336454012692  0.00000000000000000
-0.012441982257584944  0.0058541393738398709  0.00000000000000000
-0.011930355855130179  0.0055114418717477423  0.00000000000000000
-0.011404835465773150  0.0051967107248222311  0.00000000000000000
-0.010933351428307854  0.0048550391160126199  0.00000000000000000
-0.010513429044634688  0.0045884386333924282  0.00000000000000000
-0.010048579273971747  0.0043251691176958732  0.00000000000000000
-0.0096782252911791003  0.0041164570313248191  0.00000000000000000
-0.0092355952947968476  0.0038540726699431444  0.00000000000000000
-0.0090490313893803378  0.0036262467035500759  0.00000000000000000
-0.0085985571593239739  0.0034286090879174992  0.00000000000000000
-0.0083070754314577278  0.0032818708096110367  0.00000000000000000
-0.0080319609655291925  0.0031102772808428584  0.00000000000000000
-0.0076778315609374566  0.0028981142481159677  0.00000000000000000
-0.0074322229056757120  0.0027842471967513159  0.00000000000000000
-0.0072942060879638395  0.0026621092649499706  0.00000000000000000
-0.0069093986299703612  0.0024963758649975487  0.00000000000000000
-0.0067483880842390612  0.0024435102780358620  0.00000000000000000
-0.0065511961446583005  0.0022409061219459203  0.00000000000000000
-0.0061993118518351960  0.0021504549477667024  0.00000000000000000
-0.0061399216610119271  0.0021013530871477892  0.00000000000000000
-0.0059010813924885615  0.0019708490370930944  0.00000000000000000
-0.0056943786989922763  0.0018631845957258152  0.00000000000000000
-0.0055193215620589721  0.0017961100500365340  0.00000000000000000
-0.0053518840566315860  0.0016810092299303526  0.00000000000000000
-0.0052387778516557546  0.0016757498326169787  0.00000000000000000
-0.0050146261383393698  0.0015342189767172489  0.00000000000000000
-0.0049854513207543347  0.0015374196285714175  0.00000000000000000
-0.0047973788267073820  0.0014211707988747652  0.00000000000000000
-0.0045679292584168280  0.0014136487762663255  0.00000000000000000
-0.0045560557694623314  0.0012865670349817262  0.00000000000000000
-0.0043372406674345694  0.0012851024238663571  0.00000000000000000
-0.0042883172781730660  0.0011815352971591535  0.00000000000000000
-0.0042204883975178274  0.0011852209271375680  0.00000000000000000
-0.0040392465517719717  0.0011221315398954610  0.00000000000000000
-0.0038622160689893237  0.0010780295201568034  0.00000000000000000
-0.0039248774843031612  0.0010191676562527287  0.00000000000000000
-0.0037085275210630734  0.0010147371462240751  0.00000000000000000
-0.0035429447935921340  0.00095930545133901827  0.00000000000000000
-0.0036400753378595194  0.00092378747636836784  0.00000000000000000
-0.0034576789814620445  0.00090697852542472599  0.00000000000000000
-0.0033255639504926643  0.00082235706869642172  0.00000000000000000
-0.0033378606219739261  0.00087874099942494724  0.00000000000000000
-0.0031409036752869496  0.00077950046199540821  0.00000000000000000
-0.0031587997823613202  0.00073390525804478278  0.00000000000000000
-0.0030378980077240985  0.00075929797560609638  0.00000000000000000
-0.0030844755200625843  0.00073354763048982710  0.00000000000000000
-0.0028506195204469581  0.00069190414566402318  0.00000000000000000
-0.0028547366508589215  0.00066855997252206775  0.00000000000000000
-0.0027667684299945718  0.00064551049621616556  0.00000000000000000
-0.0027280339698931536  0.00062461786164606944  0.00000000000000000
-0.0027148767743807806  0.00060409643649684923  0.00000000000000000
-0.0025858015358367205  0.00054944041241042970  0.00000000000000000
-0.0024821409366625399  0.00058274932459149900  0.00000000000000000
-0.0026159372739115064  0.00054747938489768850  0.00000000000000000
-0.0023979032537950933  0.00051287271236903230  0.00000000000000000
-0.0023464807450486336  0.00053097497501109912  0.00000000000000000
-0.0024144677513498114  0.00051478136649519396  0.00000000000000000
-0.0023189791241861059  0.00049986208872823158  0.00000000000000000
-0.0021542306130629303  0.00041567009204991021  0.00000000000000000
-0.0022736958705567032  0.00047091015190299214  0.00000000000000000
-0.0021588117937289030  0.00042281966655569958  0.00000000000000000
-0.0021159197168922352  0.00042720674869803929  0.00000000000000000
-0.0020742653921057177  0.00043195521640989481  0.00000000000000000
-0.0020338025171765988  0.00041975662469765794  0.00000000000000000
-0.0019944870263502372  0.00037372070403820975  0.00000000000000000
-0.0019562767363059366  0.00037986430859004219  0.00000000000000000
-0.0019191314641560679  0.00035154033175117716  0.00000000000000000
-0.0018358755226646022  0.00037611694478210928  0.00000000000000000
-0.0018243151347368623  0.00033117034030876418  0.00000000000000000
-0.0018372779621789273  0.00037382132912975826  0.00000000000000000
-0.0017333186464232916  0.00031232309032493068  0.00000000000000000
-0.0017952283548879576  0.00035587228938249661  0.00000000000000000
-0.0016930156545436246  0.00029521129865850605  0.00000000000000000
-0.0016859058177784401  0.00028648865135946669  0.00000000000000000
-0.0017267333281058464  0.00033041085245003504  0.00000000000000000
-0.0016504906855513330  0.00025377122740695922  0.00000000000000000
-0.0015514264332598634  0.00028080838869191921  0.00000000000000000
-0.0016180646409129210  0.00027319509897658480  0.00000000000000000
-0.0015439891433329325  0.00026674272825747769  0.00000000000000000
-0.0014234517765159844  0.00027710678219134224  0.00000000000000000
-0.0015628224708755995  0.00023576401508475163  0.00000000000000000
-0.0014435702147122934  0.00024699796148089657  0.00000000000000000
-0.0014192043930871452  0.00022351924216681857  0.00000000000000000
-0.0014897051702304604  0.00026956311241139384  0.00000000000000000
-0.0013957992183671348  0.00019437207472494840  0.00000000000000000
-0.0013024485107286710  0.00025799290809581498  0.00000000000000000
-0.0013274793195204864  0.00023567115800826561  0.00000000000000000
-0.0014001687069754637  0.00017880068899393659  0.00000000000000000
-0.0012612458964377383  0.00020755155984066972  0.00000000000000000
-0.0013113621551049523  0.00016868987406556911  0.00000000000000000
-0.0012912476953014856  0.00023308217208952765  0.00000000000000000
-0.0012951626132422451  0.00019373499636030084  0.00000000000000000
-0.0011816814648002293  0.00020658373651692301  0.00000000000000000
-0.0011629086223085311  0.00015080511636667056  0.00000000000000000
-0.0011445569050150166  0.00018085335930960583  0.00000000000000000
-0.0011737509104072978  0.00017652433946532676  0.00000000000000000
-0.0012033417885363518  0.00019005180116282716  0.00000000000000000
-0.0011626120410215088  0.00015186189440930575  0.00000000000000000
-0.0011693936941275308  0.00018249811551329182  0.00000000000000000
-0.0010822649000129302  0.00016156124073155682  0.00000000000000000
-0.0010661948694326204  0.00017553701857699890  0.00000000000000000
-0.0010504681943469855  0.00013750649933004703  0.00000000000000000
-0.0011057811999985226  0.00015122365603146206  0.00000000000000000
-0.0010200070372593302  0.00014836399613962821  0.00000000000000000
-0.0010523913087776850  0.00016244774020772912  0.00000000000000000
-0.00099080840164801533  0.00015946520319927830  0.00000000000000000
-0.00097666101348657230  0.00012209375340087154  0.00000000000000000
-0.0010335100157585211  0.00010165091572519209  0.00000000000000000
-0.00097279830913608780  0.00016764323200309890  0.00000000000000000
-0.00091236223542908237  9.6499522344581487e-005  0.00000000000000000
-0.00089933068519104610  0.00012804401731822282  0.00000000000000000
-0.00098083466179501753  0.00012582214732217932  0.00000000000000000
-0.00096831800993733114  0.00014001600801005185  0.00000000000000000
-0.00093247984198369658  0.00010318264596917740  0.00000000000000000
-0.00092045161084314850  0.00015264917113542726  0.00000000000000000
-0.00081438303909356412  0.00011586101168178795  0.00000000000000000
-0.00092066100464899151  0.00011377485375376855  0.00000000000000000
-0.00088575009432480137  9.4254537073957420e-005  0.00000000000000000
-0.00080391928267028036  0.00010904400609184931  0.00000000000000000
-0.00086371173340282607  9.0192211756811298e-005  0.00000000000000000
-0.00078229916991709545  0.00010490178947138363  0.00000000000000000
-0.00081893094848581045  0.00012030397341498095  0.00000000000000000
-0.00085575926413623859  8.3920137756780791e-005  0.00000000000000000
-0.00082207284455380750  9.9612371020408713e-005  0.00000000000000000
-0.00071786809345415683  0.00013173307333952630  0.00000000000000000
-0.00077882565124195047  7.8166086410802677e-005  0.00000000000000000
-0.00083996122523095093  7.6901162375333829e-005  0.00000000000000000
-0.00071272176191807836  9.2287634689167168e-005  0.00000000000000000
-0.00075063175076560699  0.00012464101677190319  0.00000000000000000
-0.00078870775320859525  5.5031822723999559e-005  0.00000000000000000
-0.00063839622125147532  8.7239475464147406e-005  0.00000000000000000
-0.00079463456891411179  0.00011982391617190552  0.00000000000000000
-0.00066820341603931717  6.7057648496491199e-005  0.00000000000000000
-0.00070690364398471250  6.5428682240017475e-005  0.00000000000000000
-0.00074575118483263597  9.8861653501042818e-005  0.00000000000000000
-0.00061976138627046801  6.2684107744129548e-005  0.00000000000000000
-0.00068246161479239254  9.5728649112131087e-005  0.00000000000000000
-0.00079243602385893630  7.7058332405801011e-005  0.00000000000000000
-0.00059615288647915285  7.5917057073222177e-005  0.00000000000000000
-0.00061211828758591475  5.7592142653661155e-005  0.00000000000000000
-0.00069891781915672267  8.9943479348313663e-005  0.00000000000000000
-0.00066799982124640471  8.9406734227851536e-005  0.00000000000000000
-0.00063720441176604329  3.6725579846845796e-005  0.00000000000000000
-0.00065366574083983392  8.6556449968403510e-005  0.00000000000000000
-0.00055240180841516890  5.1880387013367328e-005  0.00000000000000000
-0.00061623320403367634  8.4157954872530439e-005  0.00000000000000000
-0.00063303910234789194  4.9347518623552375e-005  0.00000000000000000
-0.00067352385281662611  8.2142203743388399e-005  0.00000000000000000
-0.00054913548081976082  6.4226792615237676e-005  0.00000000000000000
-0.00058983304156670744  6.3282565709999212e-005  0.00000000000000000
-0.00048922170035788776  2.8106386378757095e-005  0.00000000000000000
-0.00060082931817563026  7.7708850839265913e-005  0.00000000000000000
-0.00059469153528910520  6.0556441851604059e-005  0.00000000000000000
-0.00056508267572415985  7.6081781764594038e-005  0.00000000000000000
-0.00053556794897051147  4.1171854799849084e-005  0.00000000000000000
-0.00057685188429922258  5.7420844202760238e-005  0.00000000000000000
-0.00061822734513127973  7.3593290993479487e-005  0.00000000000000000
-0.00044757301162760003  3.8567757452140952e-005  0.00000000000000000
-0.00058339838519469054  3.7753232882286401e-005  0.00000000000000000
-0.00057789795425767956  7.1043069816692470e-005  0.00000000000000000
-0.00043106893169301825  5.3259776576870768e-005  0.00000000000000000
-0.00054357670012702660  3.4914536814660606e-005  0.00000000000000000
-0.00051475308981200631  0.00010237271404049808  0.00000000000000000
-0.00048600841799443893  3.3910149367409587e-005  0.00000000000000000
-0.00052804667450528193  5.0165191349271313e-005  0.00000000000000000
-0.00061729779486962850  4.8787432758110494e-005  0.00000000000000000
-0.00042379993675573736  4.8595573660442816e-005  0.00000000000000000
-0.00048962933947987617  6.4716064641105655e-005  0.00000000000000000
-0.00050839287657931985  3.0033525560059735e-005  0.00000000000000000
-0.00038581514513928169  4.6567148429505242e-005  0.00000000000000000
-0.00056969743110060755  2.8848432421578680e-005  0.00000000000000000
-0.00042368647390314329  4.5123166883933513e-005  0.00000000000000000
-0.00048985914221449489  4.4375604895555142e-005  0.00000000000000000
-0.00041468541727788155  2.6974138288236320e-005  0.00000000000000000
-0.00048098647303164644  4.3101553526033832e-005  0.00000000000000000
-0.00038236882338419205  7.6235706356772624e-005  0.00000000000000000
-0.00056663806981739433  8.6301761911761715e-006  0.00000000000000000
-0.00046814143522451175  7.5016556662025612e-005  0.00000000000000000
-0.00034613632256975680  4.0683483952901486e-005  0.00000000000000000
-0.00045987563946007349  5.6996500608553351e-005  0.00000000000000000
-0.00038512124157842452  5.8131709314162059e-006  0.00000000000000000
-0.00040469897803597008  3.9265487687467291e-005  0.00000000000000000
-0.00051860462319645645  7.2264376581196942e-005  0.00000000000000000
-0.00042044702855235927  2.1335357771784747e-005  0.00000000000000000
-0.00036947892189794493  2.0542965819238202e-005  0.00000000000000000
-0.00041283800468646856  3.7044447576672474e-005  0.00000000000000000
-0.00038554191724108770  5.3400073208382157e-005  0.00000000000000000
-0.00040543208112506110  1.8924211753212885e-005  0.00000000000000000
-0.00051964673723817125  3.5838404662019691e-005  0.00000000000000000
-0.00030394882015229982  1.8233579267829009e-005  0.00000000000000000
-0.00039469087116574485  6.8477763902051697e-005  0.00000000000000000
-0.00041477289695706439  3.4139005969056968e-005  0.00000000000000000
-0.00038776370330057447  1.6929889436787530e-005  0.00000000000000000
-0.00036079928341487243  1.6297322937144524e-005  0.00000000000000000
-0.00038101616996628836  6.6650555841171464e-005  0.00000000000000000
-0.00044841508220952843  1.5543962638636291e-005  0.00000000000000000
-0.00028016873252080374  1.5146674079517414e-005  0.00000000000000000
-0.00046549402860811804  3.1699271576805406e-005  0.00000000000000000
-0.00039160705513182297  4.8040824628724627e-005  0.00000000000000000
-0.00022348387826969608  1.4039989829421202e-005  0.00000000000000000
-0.00040893234718504063  6.3986919575203440e-005  0.00000000000000000
-0.00040586920979977255 -3.4682366292050555e-006  0.00000000000000000
-0.00037927700561140730  2.9677842247644242e-005  0.00000000000000000
-0.00028201650474009657  4.5864791486786071e-005  0.00000000000000000
-0.00042047894559878499 -4.6114850025214744e-006  0.00000000000000000
-0.00034686151382777011  4.5458538901636895e-005  0.00000000000000000
-0.00036755454876606885  4.4985427690069724e-005  0.00000000000000000
-0.00027043879844355315  6.1222087167123960e-005  0.00000000000000000
-0.00031477076675263602 -5.8229939924192832e-006  0.00000000000000000
-0.00038270516611827951  4.4020251710933647e-005  0.00000000000000000
-0.00030926071574718022 -6.8565359477799017e-006  0.00000000000000000
-0.00030655810612674890  6.0011849520786127e-005  0.00000000000000000
-0.00030388570531650279  9.6928333201630720e-006  0.00000000000000000
-0.00041908880088998847  2.5849254859634410e-005  0.00000000000000000
-0.00022793266500435502  8.9599283082440193e-006  0.00000000000000000
-0.00039033612733428192  4.2040814650965234e-005  0.00000000000000000
-0.00034065306390292582  8.1834436037004896e-006  0.00000000000000000
-0.00024386277754581380  2.4515077365788192e-005  0.00000000000000000
-0.00038278859997503223  4.1311583189883922e-005  0.00000000000000000
-0.00028605657346591828  2.4100373506357475e-005  0.00000000000000000
-0.00026005991439203598  2.3816352532485239e-005  0.00000000000000000
-0.00039907240733541620  2.3444736685555949e-005  0.00000000000000000
-0.00018458302246787892  2.3379315169169833e-005  0.00000000000000000
-0.00034721826548978418  3.9818046636722862e-005  0.00000000000000000
-0.00029776428553521082 -2.7478289951287166e-005  0.00000000000000000
-0.00036617932864783974  3.9219101907786753e-005  0.00000000000000000
-0.00019893346598010873  3.8891239948675747e-005  0.00000000000000000
-0.00031453988513218810  5.2617849897810913e-006  0.00000000000000000
-0.00026518768009673810  2.2195503207861251e-005  0.00000000000000000
-0.00038084390782279221  2.1113494262360070e-005  0.00000000000000000
-0.00028440533832687709  5.4663558377805231e-005  0.00000000000000000
-0.00023512883513170565 -2.9103105024999679e-005  0.00000000000000000
-0.00028015254922964672  3.7588458320544982e-005  0.00000000000000000
-0.00032519640253390593  2.0507764351344139e-005  0.00000000000000000
-0.00020528540775278657  3.6742726830469436e-005  0.00000000000000000
-0.00027394571763385582  3.6976439121928130e-005  0.00000000000000000
-0.00024835543898116068  1.9885640429421629e-005  0.00000000000000000
-0.00031705998319156995  2.9150111023661548e-006  0.00000000000000000
-0.00026794351476378724  1.9518024046910613e-005  0.00000000000000000
-0.00026598713467928788  1.9318333191732773e-005  0.00000000000000000
-0.00026405107361594565  1.8857581406870991e-005  0.00000000000000000
-0.00021499987779615733  2.1905194351100574e-006  0.00000000000000000
-0.00028381105191312882  2.1462064372790447e-006  0.00000000000000000
-0.00030550601238865579  3.5004964465876784e-005  0.00000000000000000
-0.00025651487456010891  1.8176755124847000e-005  0.00000000000000000
-0.00020754423556720880  1.8196290267882216e-005  0.00000000000000000
-0.00030000441265800042  3.4432837360910101e-005  0.00000000000000000
-0.00022750326834618888  1.7703215449464072e-005  0.00000000000000000
-0.00032000300459251795  7.7595228539646149e-007  0.00000000000000000
-0.00015326367893702466  1.7556312747942181e-005  0.00000000000000000
-0.00017509314054317652  1.6749286295821209e-005  0.00000000000000000
-0.00033835449711714315  3.3566202453027253e-005  0.00000000000000000
-0.00019524025912726623  1.7012422114608142e-005  0.00000000000000000
-0.00026425911881490012 -2.3047001397951599e-007  0.00000000000000000
-0.00028616194467267445  3.3120406164440353e-005  0.00000000000000000
-0.00019023782402180335 -2.9790039377554123e-007  0.00000000000000000
-0.00021217121831894526  1.6105217999558420e-005  0.00000000000000000
-0.00028126056522926712  1.6115478655782464e-005  0.00000000000000000
-0.00020895541855517433  1.5475390156802082e-005  0.00000000000000000
-0.00020737125416663232  3.2248372611923487e-005  0.00000000000000000
-0.00027651058946544379  1.5418776733757896e-005  0.00000000000000000
-0.00022781938196629676  3.1718331897440815e-005  0.00000000000000000
-0.00017914939256023058 -1.4771341132694346e-006  0.00000000000000000
-0.00022476217845543995 -1.7744652822565450e-005  0.00000000000000000
-0.00029396444877546174  6.4219645697376782e-005  0.00000000000000000
-0.00017463101767362901 -1.8609488182180205e-005  0.00000000000000000
-0.00022029127455608680  1.4745595371071534e-005  0.00000000000000000
-0.00024240016765559786  3.0935861342048292e-005  0.00000000000000000
-0.00014667887758632107 -1.8882970349537456e-005  0.00000000000000000
-0.00028665895152556967  4.7533139894729807e-005  0.00000000000000000
-0.00026167195000390350  1.3699620939542492e-005  0.00000000000000000
-9.5285779724087088e-005 -2.8432511302994870e-006  0.00000000000000000
-0.00023530721096314181  1.3893761431619869e-005  0.00000000000000000
-0.00028106816387918132  3.0195425199477215e-005  0.00000000000000000
-0.00016186204133474834 -1.9465396040324532e-005  0.00000000000000000
-0.00025478434129467262  1.3264513770870657e-005  0.00000000000000000
-0.00020631070915336680  2.9524890479139184e-005  0.00000000000000000
-0.00015784786587402905  1.3265498535600257e-005  0.00000000000000000
-0.00025081008461932779  1.2865398972451850e-005  0.00000000000000000
-0.00017880666641642288  2.9390085911659956e-005  0.00000000000000000
-0.00015394949085299943 -3.7881502321972446e-006  0.00000000000000000
-0.00027051701768396027  2.9217319445168771e-005  0.00000000000000000
-0.00017498165564827864 -2.0691003598701753e-005  0.00000000000000000
-0.00010302211214696820  2.8684765544334053e-005  0.00000000000000000
-0.00024319710483722699  2.9193229942062969e-005  0.00000000000000000
-0.00019483172093355319 -2.1136018818744921e-005  0.00000000000000000
-0.00019361473743927690  1.1939151394477957e-005  0.00000000000000000
-0.00026311693808843878  4.5033016680532756e-005  0.00000000000000000
-9.6943308365902566e-005  1.1666339316329923e-005  0.00000000000000000
-0.00021360218088431509  2.8436562745131141e-005  0.00000000000000000
-0.00018886224427430888 -2.1712298511285408e-005  0.00000000000000000
-0.00021127034844567414  1.1585379311940845e-005  0.00000000000000000
-0.00011584647130421708  2.7854295796851861e-005  0.00000000000000000
-0.00030325365789001972 -5.3671463627923206e-006  0.00000000000000000
-0.00016071482580763189  1.1420399649513853e-005  0.00000000000000000
-0.00015959494205999985  2.7493644410708367e-005  0.00000000000000000
-0.00027632861734759844  1.0624870077085679e-005  0.00000000000000000
-8.6682022895925439e-005 -5.4878355043409429e-006  0.00000000000000000
-0.00013272888062252627  2.7352799205029364e-005  0.00000000000000000
-0.00024949240509141281 -5.5260516719916435e-006  0.00000000000000000
-0.00020128669632603420  1.0206121799658789e-005  0.00000000000000000
-0.00012952063306150260  1.0743432351936715e-005  0.00000000000000000
-0.00024631400671092080  1.0285448022187606e-005  0.00000000000000000
-0.00015099801817731323  2.6836071776145742e-005  0.00000000000000000
-0.00019710097798004593  2.6636393564099164e-005  0.00000000000000000
-0.00017251172579179106 -3.9238010510119772e-005  0.00000000000000000
-0.00012435816318685862  2.6443042569302722e-005  0.00000000000000000
-0.00017049169142865114 -6.1346670412619306e-006  0.00000000000000000
-0.00016949587958012768  9.8521628787175696e-006  0.00000000000000000
-0.00012137252578617579  2.5990545386794611e-005  0.00000000000000000
-0.00012039002019924850  9.6048422937700994e-006  0.00000000000000000
-0.00030797018818583326  2.6083321160624541e-005  0.00000000000000000
-0.00011845809486619806 -6.8252075122820379e-006  0.00000000000000000
-4.6799920208138255e-005  9.3219044203450524e-006  0.00000000000000000
-0.00028154035635208374  9.6197584557262049e-006  0.00000000000000000
-0.00016275931492137945 -7.0536897349415145e-006  0.00000000000000000
-0.00011469206320300051  2.5484904636207593e-005  0.00000000000000000
-0.00016090938492962581 -7.1288521315824331e-006  0.00000000000000000
-0.00020713102220025603  4.1689394202857491e-005  0.00000000000000000
-0.00018265757045116731 -2.3526928699292935e-005  0.00000000000000000
-0.00015819274978997965  8.9122114808684537e-006  0.00000000000000000
-0.00013372864838636636 -7.3748437761317853e-006  0.00000000000000000
-0.00013284827734825748  2.4960355283361167e-005  0.00000000000000000
-0.00022624672569624286  4.1073367111082179e-005  0.00000000000000000
-0.00010753545223182613 -2.3728264574798112e-005  0.00000000000000000
-0.00013024240784584976  2.4889764104571921e-005  0.00000000000000000
-0.00012938433378696077 -7.9667279822961722e-006  0.00000000000000000
-0.00024638449393491179  8.6276580879970811e-006  0.00000000000000000
-3.3426048409385233e-005 -8.0259515230508816e-006  0.00000000000000000
-0.00022113927901222055  4.0950736536560535e-005  0.00000000000000000
-0.00012604482175251747 -2.4447426432551615e-005  0.00000000000000000
-0.00012522271056271793  2.4677487649869291e-005  0.00000000000000000
-0.00017154576312459636  2.3962675051761203e-005  0.00000000000000000
-0.00014717013038001878  2.4519616273277628e-005  0.00000000000000000
-0.00012280240946529666  2.4021002330126895e-005  0.00000000000000000
-0.00016914775900632207 -4.0635516368806634e-005  0.00000000000000000
-0.00019192951738903510  2.3832216934008918e-005  0.00000000000000000
-9.6873900027979776e-005  7.9201701146989460e-006  0.00000000000000000
-0.00014323651174570707 -2.4626979485740628e-005  0.00000000000000000
-0.00016603697082093153  2.3881862551168776e-005  0.00000000000000000
-4.7434305220952035e-005  3.9921128020105929e-005  0.00000000000000000
-0.00018808868295769663 -4.1143233413242363e-005  0.00000000000000000
-0.00014020196484268668  2.3764269588094685e-005  0.00000000000000000
-0.00016302831718307612  7.3926847308540250e-006  0.00000000000000000
-0.00023299551773072976 -8.8986607841500333e-006  0.00000000000000000
-9.0851557951513755e-005  2.3548658139184449e-005  0.00000000000000000
-6.6555762775926612e-005  7.2767438119772201e-006  0.00000000000000000
-0.00018368323148048910  7.0281027154314069e-006  0.00000000000000000
-0.00011225737695809772  2.3345113918686778e-005  0.00000000000000000
-0.00013511537662298407 -9.1146768153401968e-006  0.00000000000000000
-0.00015798560366338859  7.1049536811488912e-006  0.00000000000000000
-0.00015728432771417214  3.9064034511061385e-005  0.00000000000000000
-0.00010945443093201028 -8.9394814503248828e-006  0.00000000000000000
-0.00013233688534868912 -9.1848662214314558e-006  0.00000000000000000
-0.00020236018797189530  6.5905666483940840e-006  0.00000000000000000
-6.0270891754049751e-005  2.3002781119098264e-005  0.00000000000000000
-0.00013030498323838666 -2.5651412720552198e-005  0.00000000000000000
-0.00012963823164379183  6.5969922016729038e-006  0.00000000000000000
-0.00012897795336456723  2.2784236448695934e-005  0.00000000000000000
-0.00010475264541323176  3.8930617885588453e-005  0.00000000000000000
-0.00012766890492604217 -2.5895044301929484e-005  0.00000000000000000
-0.00012702229253763088  3.8801842717755628e-005  0.00000000000000000
-0.00017351580909949507 -2.5797736644687805e-005  0.00000000000000000
-0.00010217842323526619  6.2813843093030737e-006  0.00000000000000000
-0.00012511122566829066  2.2510516870170172e-005  0.00000000000000000
-0.00014805409770491586 -9.7852354171817834e-006  0.00000000000000000
-0.00017100056602739787  5.9914027706997996e-006  0.00000000000000000
-2.8970968172616431e-005  6.3985839285233886e-006  0.00000000000000000
-0.00012263050695115034 -9.7637223164750629e-006  0.00000000000000000
-0.00012202273446101615  2.2040004537659147e-005  0.00000000000000000
-0.00014498862273355022  2.1887690548283353e-005  0.00000000000000000
-0.00014438732356073324 -9.8289808760183001e-006  0.00000000000000000
-2.3785841694428196e-006  5.8484503657086721e-006  0.00000000000000000
-0.00019034139708473490  5.8965057497272072e-006  0.00000000000000000
-0.00018975232528733755 -1.0083370412402033e-005  0.00000000000000000
-7.1323719974720584e-005  5.8975143957281524e-006  0.00000000000000000
-0.00014145706897862449  5.9241297284128761e-006  0.00000000000000000
-0.00011731016008052024  3.7773082700212068e-005  0.00000000000000000
-9.3174040044803085e-005 -1.0436180207410212e-005  0.00000000000000000
-9.2607265225370938e-005  5.7416153577159147e-006  0.00000000000000000
-0.00018631787127830623  5.6359997159600134e-006  0.00000000000000000
 2.7770527586147384e-006 -1.0057974445665923e-005  0.00000000000000000
-0.00013806792818437077  2.1013079188423421e-005  0.00000000000000000
-0.00016109495333483628 -1.0248456839778305e-005  0.00000000000000000
-0.00016054831772257169  3.7616382926503461e-005  0.00000000000000000
-6.5726459012058045e-005 -2.6729919500802441e-005  0.00000000000000000
-0.00013590584048784956  5.7213469094038471e-006  0.00000000000000000
-6.4655484767255550e-005  2.1235897259220552e-005  0.00000000000000000
-0.00013483558550052185  5.0063292105123403e-006  0.00000000000000000
-0.00013430765058087724 -1.0525089972641594e-005  0.00000000000000000
-8.6651814086120883e-005  3.7311195837344052e-005  0.00000000000000000