# ODT 1.0
# Table Start
# Title: mmArchive Data Table, Wed Jun 11 15:43:24 EDT 2014
# Columns: {CYY_STTEvolve::Total energy} {CYY_STTEvolve::Energy calc count} {CYY_STTEvolve::Max dm/dt} CYY_STTEvolve::dE/dt {CYY_STTEvolve::Delta E} Oxs_Exchange6Ngbr:NiFe:Energy {Oxs_Exchange6Ngbr:NiFe:Max Spin Ang} {Oxs_Exchange6Ngbr:NiFe:Stage Max Spin Ang} {Oxs_Exchange6Ngbr:NiFe:Run Max Spin Ang} Oxs_TransformZeeman:Bias:Energy Oxs_UniaxialAnisotropy::Energy Oxs_TwoSurfaceExchange:SyAF:Energy Oxs_StageZeeman::Energy {Oxs_StageZeeman::B max} {Oxs_StageZeeman::Bx max} {Oxs_StageZeeman::By max} {Oxs_StageZeeman::Bz max} Oxs_Demag::Energy    Oxs_TimeDriver::Iteration {Oxs_TimeDriver::Stage iteration} Oxs_TimeDriver::Stage Oxs_TimeDriver::mx   Oxs_TimeDriver::my   Oxs_TimeDriver::mz   {Oxs_TimeDriver::Last time step} {Oxs_TimeDriver::Simulation time}
# Units:                 J                               {}                           deg/ns                   J/s                     J                           J                                deg                                      deg                                        deg                                   J                              J                                J                             J                       mT                       mT                        mT                        mT                     J                       {}                            {}                          {}                   {}                   {}                   {}                          s                                 s                
               -9.6919211374661962e-18              1                              14.95105945448452       4.4429273262921075e-09    0                          7.3932479369549483e-21               0.6690564608232018                       0.6690564608232018                         0.6690564608232018                  -2.4713283316523004e-18             0                               -7.5627527925544551e-18          1.5005437640677701e-26      1.5071086147909445      -1.3191705888693284        0.72881090430867534       0                       3.3476672379816722e-19    0                             0                           0                    -0.33277075449420945  3.6592161271322991e-23 -1.2367909771804069e-23        0                                0                         
               -9.6919211332584476e-18              13                             14.933802773473671      4.7362535639364605e-09    4.2077474994154954e-27        7.3936631809851856e-21               0.66902909317213277                      0.6690564608232018                         0.6690564608232018                  -2.4713279085723187e-18             0                               -7.5627527078109475e-18          1.2230816872728973e-26      1.5071086147909445      -1.3191705888693284        0.72881090430867534       0                       3.3476580771301563e-19    1                             1                           0                    -0.33277090923980907  2.5758955631786576e-23  3.6862991412311402e-23        7.1183080263085131e-14              7.1183080263085131e-14       
               -9.691921111229644e-18              25                             15.016172083249037      5.9281863984527488e-09    2.202880511595185e-26        7.3933945342005209e-21               0.66902245278017303                      0.6690564608232018                         0.6690564608232018                  -2.4713271815909975e-18             0                               -7.562751465259528e-18          3.6980353699380564e-27      1.5071086147909445      -1.3191705888693284        0.72881090430867534       0                       3.3476413738864686e-19    2                             2                           0                    -0.33277117698296682  1.3481322573645311e-23 -9.331602968945114e-23        1.23480224828296e-13              1.9466330509138115e-13       
               -9.6919211060398621e-18              37                             15.003714490410156      6.2147127750557631e-09    5.189780683718981e-27        7.392898743622411e-21               0.66901042859369952                      0.6690564608232018                         0.6690564608232018                  -2.4713269052789686e-18             0                               -7.5627505699862818e-18         -8.1695464031555153e-28      1.5071086147909445      -1.3191705888693284        0.72881090430867534       0                       3.3476347129872004e-19    3                             3                           0                    -0.33277127951166757 -5.8258572550395808e-23 -8.0165721732569437e-23        4.7430699703407081e-14              2.4209400479478823e-13       
               -9.6919211065795e-18              43                             15.14515176678883       6.249498510974337e-09   -5.3963730140011772e-28        7.3921631548553217e-21               0.66901888608897564                      0.6690564608232018                         0.6690564608232018                  -2.4713265731070876e-18             0                               -7.5627493601442725e-18         -7.176972790189371e-27      1.5071086147909445      -1.3191705888693284        0.72881090430867534       0                       3.3476267069397714e-19    4                             4                           0                    -0.33277140306460989  1.7814604829459876e-23  4.0383783245160734e-23        5.7282708014727037e-14              2.9937671280951525e-13       
               -9.6919211065795e-18              44                             15.14515176678883       6.249498510974337e-09    0                          7.3921631548553217e-21               0.66901888608897564                      0.66901888608897564                        0.6690564608232018                  -2.4713265731070876e-18             0                               -7.5627493601442725e-18         -7.176972790189371e-27      1.5071086147909445      -1.3191705888693284        0.72881090430867534       0                       3.3476267069397714e-19    5                             0                           1                    -0.33277140306460989  1.7814604829459876e-23  4.0383783245160734e-23        0                                2.9937671280951525e-13       
               -9.6919211144483274e-18              50                             15.051154439811741      5.9550848743175582e-09   -7.8688280706224408e-27        7.3914965291852802e-21               0.66901344489066938                      0.66901888608897564                        0.6690564608232018                  -2.4713262531217306e-18             0                               -7.5627482636774512e-18         -1.4258568202942053e-26      1.5071086147909445      -1.3191705888693284        0.72881090430867534       0                       3.3476192008023712e-19    6                             1                           1                    -0.33277152205331129  3.3221830627911663e-23  7.5501424859991263e-23        5.5309870858944549e-14              3.546865836684598e-13       
               -9.6919211278891737e-18              56                             14.971558196250992      5.4121471032127816e-09   -1.3440845002543573e-26        7.3910296646447997e-21               0.66899048515412129                      0.66901888608897564                        0.6690564608232018                  -2.4713259193889084e-18             0                               -7.5627473885959503e-18         -2.2630785689306015e-26      1.5071086147909445      -1.3191705888693284        0.72881090430867534       0                       3.3476117306182727e-19    7                             2                           1                    -0.33277164578684337 -1.3360953622094907e-22  1.1748009671319487e-22        5.76835414446027e-14              4.1237012511306253e-13       
               -9.6919211424180995e-18              62                             15.124117676350865      4.8203947823663982e-09   -1.452892595156695e-26        7.3908906882527061e-21               0.66896566879659236                      0.66901888608897564                        0.6690564608232018                  -2.4713255802380255e-18             0                               -7.5627468707254369e-18         -3.2165841322344532e-26      1.5071086147909445      -1.3191705888693284        0.72881090430867534       0                       3.3476045002295271e-19    8                             3                           1                    -0.33277177097712496 -1.4877602411630004e-22  6.5570986357082884e-23        5.8564787620854644e-14              4.7093491273391713e-13       
               -9.6919211531537061e-18              68                             15.1412920764764        4.4114917931069528e-09   -1.0735607370388932e-26        7.3910621305696379e-21               0.66892039826390537                      0.66901888608897564                        0.6690564608232018                  -2.4713252315944388e-18             0                               -7.562746666549946e-18         -4.3061393944862851e-26      1.5071086147909445      -1.3191705888693284        0.72881090430867534       0                       3.3475972592150205e-19    9                             4                           1                    -0.33277189917924221  3.8518064496129461e-23 -2.9640854319287127e-23        6.0221880468290613e-14              5.3115679320220782e-13       
               -9.6919211531537061e-18              69                             15.1412920764764        4.4114917931069528e-09    0                          7.3910621305696379e-21               0.66892039826390537                      0.66892039826390537                        0.6690564608232018                  -2.4713252315944388e-18             0                               -7.562746666549946e-18         -4.3061393944862851e-26      1.5071086147909445      -1.3191705888693284        0.72881090430867534       0                       3.3475972592150205e-19    10                            0                           2                    -0.33277189917924221  3.8518064496129461e-23 -2.9640854319287127e-23        0                                5.3115679320220782e-13       
               -9.6919211562632109e-18              75                             15.139279642087839      4.3743670794282832e-09   -3.1095051557979156e-27        7.3913938495796966e-21               0.66888939039091178                      0.66892039826390537                        0.6690564608232018                  -2.4713248731105022e-18             0                               -7.5627465945872593e-18         -5.5463340469751083e-26      1.5071086147909445      -1.3191705888693284        0.72881090430867534       0                       3.3475897304831115e-19    11                            1                           2                    -0.33277203082795115 -9.74988507558277e-23 -3.3853767623551287e-23        6.2146532551163974e-14              5.9330332575337171e-13       
               -9.6919211510321047e-18              81                             15.110220500056721      4.7423057785519887e-09    5.2311065296044792e-27        7.3916393017185897e-21               0.66886501385183794                      0.66892039826390537                        0.6690564608232018                  -2.4713245046039556e-18             0                               -7.5627463801131615e-18         -6.9549229421318208e-26      1.5071086147909445      -1.3191705888693284        0.72881090430867534       0                       3.3475816393252232e-19    12                            2                           2                    -0.3327721664809446  -1.2301706848451346e-22  2.4856188495158544e-23        6.4406785990071723e-14              6.5771011174344346e-13       
               -9.6919211409108329e-18              87                             15.219505555886759      5.3404522028702212e-09    1.0121271999970785e-26        7.391552667118964e-21               0.66885263551814511                      0.66892039826390537                        0.6690564608232018                  -2.4713241263240422e-18             0                               -7.5627457711032489e-18         -8.5500713637643232e-26      1.5071086147909445      -1.3191705888693284        0.72881090430867534       0                       3.3475728935005247e-19    13                            3                           2                    -0.33277230653370571 -5.6332669325589343e-23  5.8378941501946217e-24        6.6930642439529425e-14              7.2464075418297285e-13       
               -9.6919211326935338e-18              93                             15.325963894588256      5.8457821088474228e-09    8.2172989157550558e-27        7.3910256405510543e-21               0.66885869613718474                      0.66892039826390537                        0.6690564608232018                  -2.4713237395286327e-18             0                               -7.5627446869819513e-18         -1.0343794817722855e-25      1.5071086147909445      -1.3191705888693284        0.72881090430867534       0                       3.3475637161444748e-19    14                            4                           2                    -0.33277245074740963 -2.5758955631786576e-23  4.6041123968029745e-23        6.9413656563138608e-14              7.940544107461115e-13       
               -9.6919211326935338e-18              94                             15.325963894588256      5.8457821088474228e-09    0                          7.3910256405510543e-21               0.66885869613718474                      0.66885869613718474                        0.6690564608232018                  -2.4713237395286327e-18             0                               -7.5627446869819513e-18         -1.0343794817722855e-25      1.5071086147909445      -1.3191705888693284        0.72881090430867534       0                       3.3475637161444748e-19    15                            0                           3                    -0.33277245074740963 -2.5758955631786576e-23  4.6041123968029745e-23        0                                7.940544107461115e-13       
               -9.6919211331239083e-18              100                            15.309006821578722      5.9590855238502175e-09   -4.3037488143184475e-28        7.3901896180963378e-21               0.66885760338824563                      0.66885869613718474                        0.6690564608232018                  -2.4713233451566709e-18             0                               -7.562743311590614e-18         -1.2343547559332518e-25      1.5071086147909445      -1.3191705888693284        0.72881090430867534       0                       3.3475545744075531e-19    16                            1                           3                    -0.33277259854992342 -1.4949823782560248e-22 -7.5230594719002851e-25        7.1692165914146422e-14              8.6574657666025788e-13       
               -9.6919211439294261e-18              106                            15.372706578265456      5.6054550029668717e-09   -1.0805516635800668e-26        7.3894004047189258e-21               0.66884714113422916                      0.66885869613718474                        0.6690564608232018                  -2.4713229560474472e-18             0                               -7.562742060231789e-18         -1.4482619008472283e-25      1.5071086147909445      -1.3191705888693284        0.72881090430867534       0                       3.3475461677128149e-19    17                            2                           3                    -0.33277274453110572 -2.8888548372097097e-23  9.3346121927338738e-23        7.1397031267083288e-14              9.3714360792734118e-13       
               -9.6919211594778452e-18              112                            15.455028683862587      5.0253649043175321e-09   -1.5548420293849603e-26        7.3889713063301989e-21               0.66882502005534039                      0.66885869613718474                        0.6690564608232018                  -2.4713225919939843e-18             0                               -7.5627412623817721e-18         -1.6630485010751312e-25      1.5071086147909445      -1.3191705888693284        0.72881090430867534       0                       3.3475388989643076e-19    18                            3                           3                    -0.3327728807557338   1.4179462492637657e-22  8.1670333626949498e-23        6.7208603515372943e-14              1.0043522114427141e-12       
               -9.6919211731563744e-18              118                            15.499016624831393      4.5243190850698297e-09   -1.3678529086551419e-26        7.3889293447839429e-21               0.66879084343356221                      0.66885869613718474                        0.6690564608232018                  -2.4713222447875407e-18             0                               -7.5627408934842079e-18         -1.8812923751338739e-25      1.5071086147909445      -1.3191705888693284        0.72881090430867534       0                       3.3475322389982758e-19    19                            4                           3                    -0.3327730102243881   1.974050805426635e-23  2.1726595754848026e-23        6.4464038287450819e-14              1.068816249730165e-12       
               -9.6919211731563744e-18              119                            15.499016624831393      4.5243190850698297e-09    0                          7.3889293447839429e-21               0.66879084343356221                      0.66879084343356221                        0.6690564608232018                  -2.4713222447875407e-18             0                               -7.5627408934842079e-18         -1.8812923751338739e-25      1.5071086147909445      -1.3191705888693284        0.72881090430867534       0                       3.3475322389982758e-19    20                            0                           4                    -0.3327730102243881   1.974050805426635e-23  2.1726595754848026e-23        0                                1.068816249730165e-12       
               -9.6919211807141488e-18              125                            15.539515716916682      4.3216970293172802e-09   -7.5577744544810323e-27        7.3891545680768312e-21               0.66875545870019981                      0.66879084343356221                        0.6690564608232018                  -2.4713218873113519e-18             0                               -7.5627407598694854e-18         -2.1205291267794761e-25      1.5071086147909445      -1.3191705888693284        0.72881090430867534       0                       3.3475252395152367e-19    21                            1                           4                    -0.33277314330208274  9.003597575970262e-23  2.732375200194184e-23        6.6935223427204769e-14              1.1357514731573697e-12       
               -9.6919211794888197e-18              131                            15.607365303719961      4.5517261798990847e-09    1.2253303490479549e-27        7.3894094392599256e-21               0.66872797044638266                      0.66879084343356221                        0.6690564608232018                  -2.471321519714107e-18             0                               -7.5627405833578396e-18         -2.3834802698527777e-25      1.5071086147909445      -1.3191705888693284        0.72881090430867534       0                       3.3475175249189532e-19    22                            2                           4                    -0.33277328044475513  4.9351270135665876e-23  1.1167229480088785e-22        6.9774173605500022e-14              1.2055256467628698e-12       
               -9.6919211719857156e-18              137                            15.726072967036067      5.0850996526886166e-09    7.5031027273120594e-27        7.3893975756417322e-21               0.66871369942490588                      0.66879084343356221                        0.6690564608232018                  -2.4713211548458721e-18             0                               -7.5627400766257632e-18         -2.6633051923127414e-25      1.5071086147909445      -1.3191705888693284        0.72881090430867534       0                       3.3475092824079608e-19    23                            3                           4                    -0.33277341743780192 -1.3120215718994099e-22  1.2608647674904879e-23        7.0571151757345278e-14              1.276096798520215e-12       
               -9.6919211650914118e-18              143                            15.800258263083606      5.5785236267225166e-09    6.8943047952523357e-27        7.3890030229836592e-21               0.66871595810694773                      0.66879084343356221                        0.6690564608232018                  -2.471320812323435e-18             0                               -7.5627391916806491e-18         -2.944404702999105e-25      1.5071086147909445      -1.3191705888693284        0.72881090430867534       0                       3.3475013033015891e-19    24                            4                           4                    -0.33277354710947477  3.6592161271322991e-23  5.8679863880822224e-23        6.7651295721229722e-14              1.3437480942414448e-12       
               -9.6919211650914118e-18              144                            15.800258263083606      5.5785236267225166e-09    0                          7.3890030229836592e-21               0.66871595810694773                      0.66871595810694773                        0.6690564608232018                  -2.471320812323435e-18             0                               -7.5627391916806491e-18         -2.944404702999105e-25      1.5071086147909445      -1.3191705888693284        0.72881090430867534       0                       3.3475013033015891e-19    25                            0                           5                    -0.33277354710947477  3.6592161271322991e-23  5.8679863880822224e-23        0                                1.3437480942414448e-12       
               -9.6919211640781477e-18              150                            15.914617993500482      5.7907278112319105e-09    1.013263070851179e-27        7.3883514900026926e-21               0.66871900924977978                      0.66871900924977978                        0.6690564608232018                  -2.4713204928957148e-18             0                               -7.5627381093995991e-18         -3.2231212475259313e-25      1.5071086147909445      -1.3191705888693284        0.72881090430867534       0                       3.3474940903928846e-19    26                            1                           5                    -0.33277366887606147 -5.9702999969000671e-23  9.9484938456409374e-23        6.4318050082943658e-14              1.4080661443243884e-12       
               -9.6919211707957636e-18              156                            15.991347617325999      5.6558545620905304e-09   -6.7176154492115891e-27        7.3876222954378417e-21               0.66871400657560931                      0.66871900924977978                        0.6690564608232018                  -2.4713201742498082e-18             0                               -7.5627370147774242e-18         -3.5169666371719692e-25      1.5071086147909445      -1.3191705888693284        0.72881090430867534       0                       3.3474874763269388e-19    27                            2                           5                    -0.33277379079173852 -1.4444274186048548e-24  4.2881438989831625e-23        6.5209204640395628e-14              1.473275348964784e-12       
               -9.6919211843153496e-18              162                            16.068585302065525      5.2194425771202768e-09   -1.3519585274346487e-26        7.3870395153417977e-21               0.66870011868633705                      0.66871900924977978                        0.6690564608232018                  -2.4713198462963914e-18             0                               -7.5627361305231627e-18         -3.8355823583079043e-25      1.5071086147909445      -1.3191705888693284        0.72881090430867534       0                       3.3474813654709882e-19    28                            3                           5                    -0.33277391628690828  4.9592008038766682e-23  1.267785982204636e-22        6.8043666753988447e-14              1.5413190157187724e-12       
               -9.691921199646792e-18              168                            16.156169047466459      4.7018023082617215e-09   -1.5331442494819082e-26        7.386796430815257e-21               0.66867361958220928                      0.66871900924977978                        0.6690564608232018                  -2.4713195151726192e-18             0                               -7.5627356261946485e-18         -4.1741412663305974e-25      1.5071086147909445      -1.3191705888693284        0.72881090430867534       0                       3.3474756270378811e-19    29                            4                           5                    -0.33277404273902633  2.1666411279072823e-23 -6.9121870427819827e-23        6.9610692492197539e-14              1.6109297082109699e-12       
               -9.691921199646792e-18              169                            16.156169047466459      4.7018023082617215e-09    0                          7.386796430815257e-21               0.66867361958220928                      0.66867361958220928                        0.6690564608232018                  -2.4713195151726192e-18             0                               -7.5627356261946485e-18         -4.1741412663305974e-25      1.5071086147909445      -1.3191705888693284        0.72881090430867534       0                       3.3474756270378811e-19    30                            0                           6                    -0.33277404273902633  2.1666411279072823e-23 -6.9121870427819827e-23        0                                1.6109297082109699e-12       
               -9.6919212102752228e-18              175                            16.197665589433811      4.4001711926183367e-09   -1.0628431700317609e-26        7.3868792813120184e-21               0.6686430724400757                       0.66867361958220928                        0.6690564608232018                  -2.4713191952754941e-18             0                               -7.5627354404352433e-18         -4.5185541349825982e-25      1.5071086147909445      -1.3191705888693284        0.72881090430867534       0                       3.3474699800961559e-19    31                            1                           6                    -0.33277416475128968  1.6947948378296963e-22 -7.5230594719002851e-25        6.8285995423602882e-14              1.6792157036345728e-12       
               -9.691921213340291e-18              181                            16.273032890213649      4.4525073707850689e-09   -3.0650683146669379e-27        7.3870766302379934e-21               0.66861782984215079                      0.66867361958220928                        0.6690564608232018                  -2.4713188945293394e-18             0                               -7.5627353251583876e-18         -4.8599656555825971e-25      1.5071086147909445      -1.3191705888693284        0.72881090430867534       0                       3.3474641571376226e-19    32                            2                           6                    -0.33277427970138862  2.1907149182173633e-23 -5.4858149669096882e-23        6.5451719537217345e-14              1.7446674231717903e-12       
               -9.6919212102938427e-18              187                            16.367966919269694      4.8006740112114511e-09    3.0464485077753928e-27        7.3871607397414905e-21               0.66860536443127971                      0.66867361958220928                        0.6690564608232018                  -2.4713186036230208e-18             0                               -7.5627350379593463e-18         -5.2088643267289982e-25      1.5071086147909445      -1.3191705888693284        0.72881090430867534       0                       3.3474579143521559e-19    33                            3                           6                    -0.33277439157480432 -2.0125688699227643e-22  3.5809763086245356e-24        6.4834120275298146e-14              1.8095015434470883e-12       
               -9.6919212048369837e-18              193                            16.454189407195695      5.275075659793846e-09    5.4568586678501706e-27        7.3869623536981359e-21               0.66860152515623406                      0.66867361958220928                        0.6690564608232018                  -2.4713183114184834e-18             0                               -7.5627344219957049e-18         -5.5800857897994907e-25      1.5071086147909445      -1.3191705888693284        0.72881090430867534       0                       3.3474512423208494e-19    34                            4                           6                    -0.33277450499185646  7.7036128992258922e-23  9.4158612350303971e-23        6.6948350834814301e-14              1.8764498942819025e-12       
# Table End
