# ODT 1.0
# Table Start
# Title: mmArchive Data Table, Wed Jun 11 23:24:09 EDT 2014
# Columns: {Xf_STT:PL0:average J} {Oxs_RungeKuttaEvolve:evolve:Total energy} {Oxs_RungeKuttaEvolve:evolve:Energy calc count} {Oxs_RungeKuttaEvolve:evolve:Max dm/dt} Oxs_RungeKuttaEvolve:evolve:dE/dt {Oxs_RungeKuttaEvolve:evolve:Delta E} Oxs_UniaxialAnisotropy::Energy Oxs_UniformExchange::Energy {Oxs_UniformExchange::Max Spin Ang} {Oxs_UniformExchange::Stage Max Spin Ang} {Oxs_UniformExchange::Run Max Spin Ang} Xf_STT:PL0:Energy    Oxs_TimeDriver::Iteration {Oxs_TimeDriver::Stage iteration} Oxs_TimeDriver::Stage Oxs_TimeDriver::mx   Oxs_TimeDriver::my   Oxs_TimeDriver::mz   {Oxs_TimeDriver::Last time step} {Oxs_TimeDriver::Simulation time}
# Units:           A/m^2                              J                                            {}                                        deg/ns                                 J/s                                  J                                 J                             J                              deg                                    deg                                      deg                           J                       {}                            {}                          {}                   {}                   {}                   {}                          s                                 s                
             2.1038083400000005               7.065571678084957e-25                          1                                           35.55399521136232                   -4.9543778714071758e-15                 0                                  7.065571678084957e-25          0                               0                                      0                                        0                              0                      0                             0                           0                     0.0017453257076118791  3.0461711048092857e-06 -0.99999847691328736        0                                0                         
             2.1038083400000005               7.0659119719710674e-25                          19                                          37.529997117513709                  -4.9546224907336442e-15                 3.4029388611020765e-29                7.0659117215238033e-25          2.504472634446884e-32             6.2495472795901915e-06                    6.2495472795901915e-06                      6.2495472795901915e-06            0                      1                             1                           0                     0.0017453684444038915  2.5877126743491155e-06 -0.99999847683998655        7.7178157823089541e-16              7.7178157823089541e-16       
             2.1038083400000005               7.0663452187094699e-25                          25                                          38.477847617752545                  -4.9549435531916683e-15                 4.3324673840316753e-29                7.0663444398402852e-25          7.7886918543184909e-32             7.5385655272564478e-06                    7.5385655272564478e-06                      7.5385655272564478e-06            0                      2                             2                           0                     0.0017454226493067049  2.0043845648944648e-06 -0.99999847674670728        9.8193637908439025e-16              1.7537179573152857e-15       
             2.1038083400000005               7.0667820179474507e-25                          31                                          38.672751420060017                  -4.9552744728226466e-15                 4.3679923798020958e-29                7.0667806040447806e-25          1.4139026697919188e-31             9.8382438814255844e-06                    9.8382438814255844e-06                      9.8382438814255844e-06            0                      3                             3                           0                     0.0017454770827606818  1.4164992290781739e-06 -0.99999847665268604        9.8954633159344297e-16              2.7432642889087288e-15       
             2.1038083400000005               7.0672167026441777e-25                          37                                          38.873896397459298                  -4.9556064868368081e-15                 4.3468469672679982e-29                7.0672144156756425e-25          2.2869685346604659e-31             1.2695218914445526e-05                    1.2695218914445526e-05                      1.2695218914445526e-05            0                      4                             4                           0                     0.0017455310204650086  8.3187240304594315e-07 -0.99999847655917118        9.8400049778005758e-16              3.727264786688786e-15       
# Table End
