# ODT 1.0
# Table Start
# Title: mmArchive Data Table, Wed Jun 11 15:42:46 EDT 2014
# Columns: {Oxs_RungeKuttaEvolve:evolver:Total energy} {Oxs_RungeKuttaEvolve:evolver:Energy calc count} {Oxs_RungeKuttaEvolve:evolver:Max dm/dt} Oxs_RungeKuttaEvolve:evolver:dE/dt {Oxs_RungeKuttaEvolve:evolver:Delta E} PBC_Demag_2D::Energy PBC_Exchange_2D::Energy Oxs_ExchangePtwise::Energy {Oxs_ExchangePtwise::Max Spin Ang} {Oxs_ExchangePtwise::Stage Max Spin Ang} {Oxs_ExchangePtwise::Run Max Spin Ang} PBC_ExchangePtwise_2D::Energy Oxs_Demag::Energy    Oxs_TimeDriver::Iteration {Oxs_TimeDriver::Stage iteration} Oxs_TimeDriver::Stage Oxs_TimeDriver::mx   Oxs_TimeDriver::my   Oxs_TimeDriver::mz   {Oxs_TimeDriver::Last time step} {Oxs_TimeDriver::Simulation time}
# Units:                        J                                             {}                                         deg/ns                                 J/s                                   J                             J                      J                        J                             deg                                   deg                                     deg                                 J                       J                       {}                            {}                          {}                   {}                   {}                   {}                          s                                 s                
                       7.279650777793761e-19                            1                                            35372.014354958927                   -1.0775715864083045e-07                  0                             7.1725544685213797e-20   2.197778600213946e-19       1.098889300106973e-19            54.735610317245346                    54.735610317245346                      54.735610317245346                2.197778600213946e-19       1.0679488304067575e-19    0                             0                           0                     0.78867513459481287  0.28867513459481287  0.28867513459481287        0                                0                         
                       7.2793613731021215e-19                            7                                            35371.77869809309                    -1.0775498674634961e-07                 -2.8940469163964197e-23           7.1728359108652598e-20   2.1976386154870071e-19       1.0988100719931395e-19            54.733488671542432                    54.735610317245346                      54.735610317245346                2.1976386154870071e-19       1.0679904790484418e-19    1                             1                           0                     0.78868479472226427  0.28866445878754321  0.2886827325280546         2.6857390434899454e-16              2.6857390434899454e-16       
                       7.2782038126730148e-19                            13                                           35370.82216726918                    -1.0774629766748444e-07                 -1.1575604291062333e-22           7.1739607236798707e-20   2.1970788767594606e-19       1.0984930062459269e-19            54.724993469671311                    54.735610317245346                      54.735610317245346                2.1970788767594606e-19       1.0681569805401803e-19    2                             2                           0                     0.78872343194810635  0.28862174900570903  0.28871311763959923        1.0742956173959782e-15              1.3428695217449727e-15       
                       7.2735745048186364e-19                            19                                           35366.773636352926                   -1.0771151644978278e-07                 -4.62930785437845e-22           7.178444539137611e-20   2.1948431325464779e-19       1.0972223028931366e-19            54.690875185640429                    54.735610317245346                      54.735610317245346                2.1948431325464779e-19       1.0688214829187828e-19    3                             3                           0                     0.78887792767623666  0.28845080507473875  0.2888345519718627         4.2971824695839126e-15              5.6400519913288853e-15       
                       7.255072248038093e-19                            25                                           35347.024281345119                   -1.0757193675976071e-07                 -1.8502256780543277e-21           7.1961245326754284e-20   2.1859520211416531e-19       1.0921012299525605e-19            54.552229876008397                    54.735610317245346                      54.735610317245346                2.1859520211416531e-19       1.0714545225346841e-19    4                             4                           0                     0.78949501947560718  0.28776535516187551  0.28931858078202966        1.7188729878335651e-14              2.2828781869664534e-14       
                       7.255072248038093e-19                            26                                           35347.024281345119                   -1.0757193675976071e-07                  0                             7.1961245326754284e-20   2.1859520211416531e-19       1.0921012299525605e-19            54.552229876008397                    54.552229876008397                      54.735610317245346                2.1859520211416531e-19       1.0714545225346841e-19    5                             0                           1                     0.78949501947560718  0.28776535516187551  0.28931858078202966        0                                2.2828781869664534e-14       
                       7.1813057247098148e-19                            32                                           35211.439046530206                   -1.0700284326263946e-07                 -7.3766523328278084e-21           7.2622501571847287e-20   2.1512475172771205e-19       1.071054667844225e-19            53.964655340663185                    54.552229876008397                      54.735610317245346                2.1512475172771205e-19       1.0815310065928765e-19    6                             1                           1                     0.79194658667479445  0.28499695773534978  0.2912267421188115         6.8754919513342602e-14              9.1583701383007137e-14       
                       6.8904963845487554e-19                            38                                           33803.018043484481                   -1.043663432995103e-07                 -2.9080934016106016e-20           7.4267361906807027e-20   2.0276798567759063e-19       9.8086299553748049e-20            51.19716348234018                     54.552229876008397                      54.735610317245346                2.0276798567759063e-19       1.1116000563913916e-19    7                             2                           1                     0.80133555625486008  0.27351246608613755  0.29838982907636014        2.7501967805337041e-13              3.6660337943637753e-13       
                       6.5175964552383311e-19                            44                                           30181.875615756126                   -9.9458253945003035e-08                 -3.7289992931042399e-20           7.3334589974631695e-20   1.9040257471955017e-19       8.5768493328719099e-20            46.940146525553793                    54.552229876008397                      54.735610317245346                1.9040257471955017e-19       1.1185141278138197e-19    8                             3                           1                     0.81226045851872286  0.25729872718106095  0.30677864968689583        3.654306694971191e-13              7.3203404893349669e-13       
                       6.235564821023091e-19                            50                                           29057.869643275375                   -9.4371633089520595e-08                 -2.8203163421524002e-20           7.0208017812702337e-20   1.8357324258619664e-19       7.6477459781108396e-20            43.400521933809905                    54.552229876008397                      54.735610317245346                1.8357324258619664e-19       1.0972451933610511e-19    9                             4                           1                     0.81949811786017646  0.24365072331928944  0.31268554702441659        2.9079473293616787e-13              1.0228287818696646e-12       
                       6.235564821023091e-19                            51                                           29057.869643275375                   -9.4371633089520595e-08                  0                             7.0208017812702337e-20   1.8357324258619664e-19       7.6477459781108396e-20            43.400521933809905                    43.400521933809905                      54.735610317245346                1.8357324258619664e-19       1.0972451933610511e-19    10                            0                           2                     0.81949811786017646  0.24365072331928944  0.31268554702441659        0                                1.0228287818696646e-12       
                       5.9076830370433335e-19                            57                                           30109.578258708902                   -8.7098180504221463e-08                 -3.2788178397975723e-20           6.4554048267796748e-20   1.7764726181339174e-19       6.6159472769325786e-20            39.022136862586571                    43.400521933809905                      54.735610317245346                1.7764726181339174e-19       1.0476025904042736e-19    11                            1                           2                     0.82700758428677301  0.22582178349435997  0.31929782109403476        3.6118567775494202e-13              1.3840144596246065e-12       
                       5.6080627941908485e-19                            63                                           29887.061849700054                   -7.9712651164035314e-08                 -2.9962024285248518e-20           5.879064460441496e-20   1.7265357867776995e-19       5.7669227760246018e-20            34.926800192033618                    43.400521933809905                      54.735610317245346                1.7265357867776995e-19       9.9039249698883973e-20    12                            2                           2                     0.83361580211689268  0.20727009185798534  0.32529823391342455        3.5944228513810232e-13              1.7434567447627088e-12       
                       5.3926684884368416e-19                            69                                           29205.740543287557                   -7.4646141862475192e-08                 -2.1539430575400687e-20           5.5496656137126454e-20   1.6790076660448394e-19       5.2436289702393555e-20            32.229799959563053                    43.400521933809905                      54.735610317245346                1.6790076660448394e-19       9.5532369795196261e-20    13                            3                           2                     0.83874181593910557  0.19243182938280831  0.32971932476774568        2.7937203710695564e-13              2.0228287818696646e-12       
                       5.3926684884368416e-19                            70                                           29205.740543287557                   -7.4646141862475192e-08                  0                             5.5496656137126454e-20   1.6790076660448394e-19       5.2436289702393555e-20            32.229799959563053                    32.229799959563053                      54.735610317245346                1.6790076660448394e-19       9.5532369795196261e-20    14                            0                           3                     0.83874181593910557  0.19243182938280831  0.32971932476774568        0                                2.0228287818696646e-12       
                       5.1267408972241476e-19                            76                                           29719.600972257529                   -6.9676408806006912e-08                 -2.6592759121269384e-20           5.3845356324708829e-20   1.5890008947227714e-19       4.7260274185757405e-20            29.813238565265227                    32.229799959563053                      54.735610317245346                1.5890008947227714e-19       9.3768280267394287e-20    15                            1                           3                     0.84608764943707815  0.17234006076799616  0.33538107781134952        3.6949462050755813e-13              2.3923234023772226e-12       
                       4.8698098268761266e-19                            82                                           30199.538944570359                   -6.6590014637030346e-08                 -2.5693107034802162e-20           5.5119786204179755e-20   1.4627160975395302e-19       4.3742325293748429e-20            28.918770487384148                    32.229799959563053                      54.735610317245346                1.4627160975395302e-19       9.5575651681778419e-20    16                            2                           3                     0.85438315194635961  0.15122621750035006  0.3408660969256761         3.7789710360607619e-13              2.7702205059832988e-12       
                       4.7034976535012561e-19                            88                                           29939.179820130284                   -6.5120926953506498e-08                 -1.6631217337487011e-20           5.6807356499196197e-20   1.3666718498174093e-19       4.2214012066929601e-20            29.014816339833814                    32.229799959563053                      54.735610317245346                1.3666718498174093e-19       9.7994026820517951e-20    17                            3                           3                     0.86011596832978954  0.13677710254820416  0.3441964306268494         2.5260827588636566e-13              3.0228287818696644e-12       
                       4.7034976535012561e-19                            89                                           29939.179820130284                   -6.5120926953506498e-08                  0                             5.6807356499196197e-20   1.3666718498174093e-19       4.2214012066929601e-20            29.014816339833814                    29.014816339833814                      54.735610317245346                1.3666718498174093e-19       9.7994026820517951e-20    18                            0                           4                     0.86011596832978954  0.13677710254820416  0.3441964306268494         0                                3.0228287818696644e-12       
                       4.4591275811123106e-19                            95                                           28659.89899614601                    -6.2820061586304175e-08                 -2.4437007238894592e-20           5.9007068601497867e-20   1.222690992755131e-19       4.0818824514754805e-20            29.651482469363103                    29.651482469363103                      54.735610317245346                1.222690992755131e-19       1.0154866644395219e-19    19                            1                           4                     0.86838273163249613  0.11444551235539044  0.34844191950733006        3.8180473424551443e-13              3.4046335161151789e-12       
                       4.2111303057113792e-19                            101                                          26201.782075326606                   -5.9492306100116124e-08                 -2.479972754009309e-20           5.9330971690560052e-20   1.0926858897313976e-19       4.0076229804915876e-20            30.43032283992606                     30.43032283992606                       54.735610317245346                1.0926858897313976e-19       1.031686511293825e-19    20                            2                           4                     0.87580792096839399  0.090162520566057752  0.35167832514277464        4.0496445529159748e-13              3.8095979714067766e-12       
                       4.0865831987194153e-19                            107                                          24577.973510119296                   -5.7276083504824052e-08                 -1.2454710699196398e-20           5.8409682090404869e-20   1.0381467501767913e-19       3.9850073708448348e-20            30.784954425414373                    30.784954425414373                      54.735610317245346                1.0381467501767913e-19       1.0276921403773008e-19    21                            3                           4                     0.87899271991869143  0.077154272529177712  0.35281978243648188        2.1323081046288806e-13              4.0228287818696645e-12       
                       4.0865831987194153e-19                            108                                          24577.973510119296                   -5.7276083504824052e-08                  0                             5.8409682090404869e-20   1.0381467501767913e-19       3.9850073708448348e-20            30.784954425414373                    30.784954425414373                      54.735610317245346                1.0381467501767913e-19       1.0276921403773008e-19    22                            0                           5                     0.87899271991869143  0.077154272529177712  0.35281978243648188        0                                4.0228287818696645e-12       
                       3.8733981612823286e-19                            114                                          21788.333191488964                   -5.2602553892636081e-08                 -2.1318503743708675e-20           5.510076102150317e-20   9.6313087745242748e-20       3.949664144857361e-20            31.400296064102662                    31.400296064102662                      54.735610317245346                9.6313087745242748e-20       1.0011623816767059e-19    23                            1                           5                     0.88359465760445166  0.053191854305605961  0.35392067253008147        3.8772225288149262e-13              4.4105510347511571e-12       
                       3.6697305977767343e-19                            120                                          20630.227762690793                   -4.7510995328074015e-08                 -2.0366756350559422e-20           5.0778149532173806e-20   9.0701398117778084e-20       3.86049142486403e-20            31.47041329098958                     31.47041329098958                       54.735610317245346                9.0701398117778084e-20       9.6187199761303183e-20    24                            2                           5                     0.88736198849542014  0.027775285169214087  0.3538882755781152         4.0718858922534028e-13              4.8177396239764971e-12       
                       3.5746884800048581e-19                            126                                          19588.489406131041                   -4.5221364982115778e-08                 -9.5042117771876519e-21           4.896680564375978e-20   8.8161883778706146e-20       3.7662426081109768e-20            31.148710739078798                    31.47041329098958                       54.735610317245346                8.8161883778706146e-20       9.4515848718203948e-20    25                            3                           5                     0.88912868152369307  0.014942433757824012  0.35350597617622576        2.050891578931671e-13              5.0228287818696643e-12       
                       3.5746884800048581e-19                            127                                          19588.489406131041                   -4.5221364982115778e-08                  0                             4.896680564375978e-20   8.8161883778706146e-20       3.7662426081109768e-20            31.148710739078798                    31.148710739078798                      54.735610317245346                8.8161883778706146e-20       9.4515848718203948e-20    26                            0                           6                     0.88912868152369307  0.014942433757824012  0.35350597617622576        0                                5.0228287818696643e-12       
                       3.3962443063192304e-19                            133                                          17243.061486151477                   -4.1631060274299103e-08                 -1.7844417368562739e-20           4.7067120055943437e-20   8.2607393089403708e-20       3.4454260952510227e-20            29.662266113277187                    31.148710739078798                      54.735610317245346                8.2607393089403708e-20       9.2888263444661958e-20    27                            1                           6                     0.89284255484485231 -0.010824151346101455  0.3521692531402863         4.1210394413401975e-13              5.4349327260036844e-12       
                       3.2185752060629316e-19                            139                                          18395.042119596354                   -3.9116507437023106e-08                 -1.7766910025629876e-20           4.7558565402165349e-20   7.5508431351278925e-20       2.9546639052541825e-20            27.013513745916228                    31.148710739078798                      54.735610317245346                7.5508431351278925e-20       9.373545344902815e-20    28                            2                           6                     0.89713375554644859 -0.038319480872120622  0.34998198218489585        4.41091693212767e-13              5.8760244192164509e-12       
                       3.1616495083172328e-19                            145                                          19060.367739032874                   -3.8443120106737349e-08                 -5.6925697745698951e-21           4.8055018031011011e-20   7.2974078626607848e-20       2.7803749822121852e-20            25.991793511518321                    31.148710739078798                      54.735610317245346                7.2974078626607848e-20       9.4358025725374723e-20    29                            3                           6                     0.89855114006649528 -0.047443675103489263  0.34906677427574773        1.4680436265321326e-13              6.0228287818696641e-12       
                       3.1616495083172328e-19                            146                                          19060.367739032874                   -3.8443120106737349e-08                  0                             4.8055018031011011e-20   7.2974078626607848e-20       2.7803749822121852e-20            25.991793511518321                    25.991793511518321                      54.735610317245346                7.2974078626607848e-20       9.4358025725374723e-20    30                            0                           7                     0.89855114006649528 -0.047443675103489263  0.34906677427574773        0                                6.0228287818696641e-12       
                       3.0090258009673601e-19                            152                                          20770.921600082824                   -3.6595124639112449e-08                 -1.5262370734987265e-20           4.9400515897238291e-20   6.6095482187668079e-20       2.3319810985043021e-20            23.163018473524978                    25.991793511518321                      54.735610317245346                6.6095482187668079e-20       9.5991288839118536e-20    31                            1                           7                     0.90208223194850623 -0.072631671727294414  0.34595027185117833        4.0670418871401858e-13              6.4295329705836828e-12       
                       2.8494009810068778e-19                            158                                          21791.586612998392                   -3.4089742393473327e-08                 -1.5962481996048227e-20           4.962262736091272e-20   5.9716190293337677e-20       1.9603146191390689e-20            20.639055180707221                    25.991793511518321                      54.735610317245346                5.9716190293337677e-20       9.628194396170902e-20    32                            2                           7                     0.90478861347975237 -0.10036234732075397  0.34131453675407625        4.510235653926327e-13              6.8805565359763155e-12       
                       2.8015596247230624e-19                            164                                          21806.556885735466                   -3.3152204590642391e-08                 -4.7841356283815644e-21           4.9282735645816143e-20   5.8105163543057673e-20       1.8763758351160674e-20            20.100354056903175                    25.991793511518321                      54.735610317245346                5.8105163543057673e-20       9.5899141389214062e-20    33                            3                           7                     0.90532394390337001 -0.10904837771044773  0.33956295661044378        1.4227224589334873e-13              7.0228287818696647e-12       
                       2.8015596247230624e-19                            165                                          21806.556885735466                   -3.3152204590642391e-08                  0                             4.9282735645816143e-20   5.8105163543057673e-20       1.8763758351160674e-20            20.100354056903175                    20.100354056903175                      54.735610317245346                5.8105163543057673e-20       9.5899141389214062e-20    34                            0                           8                     0.90532394390337001 -0.10904837771044773  0.33956295661044378        0                                7.0228287818696647e-12       
# Table End
