# ODT 1.0
# Table Start
# Title: mmArchive Data Table, Wed Jun 11 23:40:00 EDT 2014
# Columns: {Oxs_RungeKuttaEvolve:evolver:Total energy} {Oxs_RungeKuttaEvolve:evolver:Energy calc count} {Oxs_RungeKuttaEvolve:evolver:Max dm/dt} Oxs_RungeKuttaEvolve:evolver:dE/dt {Oxs_RungeKuttaEvolve:evolver:Delta E} PBC_Exchange_2D::Energy PBC_Demag_2D::Energy Oxs_TimeDriver::Iteration {Oxs_TimeDriver::Stage iteration} Oxs_TimeDriver::Stage Oxs_TimeDriver::mx   Oxs_TimeDriver::my   Oxs_TimeDriver::mz   {Oxs_TimeDriver::Last time step} {Oxs_TimeDriver::Simulation time}
# Units:                        J                                             {}                                         deg/ns                                 J/s                                   J                               J                     J                      {}                            {}                          {}                   {}                   {}                   {}                          s                                 s                
                       4.0606488795021511e-17                            1                                            4593.551433673063                    -4.1179531478278677e-06                  0                              0                      4.0606488795021511e-17    0                             0                           0                     0.57735026918962573  0.57735026918962573  0.57735026918962573        0                                0                         
                       4.0597972834317968e-17                            7                                            4593.3105378662603                   -4.1175212503520995e-06                 -8.5159607035456948e-21            4.9037006570364011e-47    4.0597972834317968e-17    1                             1                           0                     0.57748539432925783  0.5772756641351432   0.57728972529719502        2.0681166058923776e-15              2.0681166058923776e-15       
                       4.0563917927857993e-17                            13                                           4592.3460711631997                   -4.1157923033584196e-06                 -3.405490645997394e-20            1.2253865005183266e-45    4.0563917927857993e-17    2                             2                           0                     0.57802565670186246  0.57697700604253266  0.57704754976741379        8.2724664235695104e-15              1.0340583029461887e-14       
                       4.0427841597242702e-17                            19                                           4588.4740977060128                   -4.1088548817903722e-06                 -1.3607633061529364e-19            2.1577883137136417e-44    4.0427841597242702e-17    3                             3                           0                     0.58018288961199072  0.57577857947462929  0.57607885052278962        3.3089865694278041e-14              4.3430448723739925e-14       
                       3.9885848840939424e-17                            25                                           4572.7623606970883                   -4.0807641839769138e-06                 -5.4199275630327843e-19            3.5104504540023384e-43    3.9885848840939424e-17    4                             4                           0                     0.58875040455904981  0.57092492173017495  0.57220424227625999        1.3235946277711217e-13              1.7578991150085208e-13       
# Table End
