# ODT 1.0
# Table Start
# Title: mmArchive Data Table, Wed Aug 17 23:55:57 EDT 2011
# Columns: {Oxs_CGEvolve::Max mxHxm} {Oxs_CGEvolve::Total energy} {Oxs_CGEvolve::Delta E} {Oxs_CGEvolve::Bracket count} {Oxs_CGEvolve::Line min count} {Oxs_CGEvolve::Conjugate cycle count} {Oxs_CGEvolve::Cycle count} {Oxs_CGEvolve::Cycle sub count} {Oxs_CGEvolve::Energy calc count} Oxs_UniformExchange::Energy {Oxs_UniformExchange::Max Spin Ang} {Oxs_UniformExchange::Stage Max Spin Ang} {Oxs_UniformExchange::Run Max Spin Ang} Oxs_UZeeman::Energy  Oxs_UZeeman::B       Oxs_UZeeman::Bx      Oxs_UZeeman::By      Oxs_UZeeman::Bz      Oxs_QDemag::Energy   Oxs_MinDriver::Iteration {Oxs_MinDriver::Stage iteration} Oxs_MinDriver::Stage Oxs_MinDriver::mx    Oxs_MinDriver::my    Oxs_MinDriver::mz   
# Units:              A/m                         J                          J                         {}                             {}                                {}                               {}                            {}                               {}                              J                              deg                                    deg                                      deg                            J                 mT                   mT                   mT                   mT                     J                       {}                           {}                         {}                 {}                   {}                   {}           
              1746207.4553428555          3.217924418664379e-16       3.217924418664379e-16        0                              0                                 1                                1                             1                                1                              1.5600000000000002e-16             90                                     90                                       90                             0                    0                    0                    0                    0                    1.6579244186643904e-16    0                            0                          0                    0                    0                    0.093333333333333338
              1744975.7833005877          3.215582194547401e-16      -2.3422241169780424e-19        1                              0                                 1                                1                             1                                2                              1.557651828520484e-16             89.922852335181432                     90                                       90                             0                    0                    0                    0                    0                    1.6579303660269022e-16    1                            1                          0                   -1.531614341527327e-22  3.0681904819276596e-18  0.093339189685331531
              1736217.8420609126          3.199236505077561e-16      -1.6345689469839961e-18        2                              0                                 1                                1                             1                                3                              1.541270134531275e-16             89.382653405546762                     90                                       90                             0                    0                    0                    0                    0                    1.657966370546301e-16    2                            2                          0                   -2.5491115391357905e-21  1.4513110121091206e-18  0.093379696220933367
              1736798.4776375247          3.1992382281547448e-16       1.723077183773465e-22        2                              0                                 2                                2                             2                                4                              1.541270134531275e-16             89.382653405546762                     89.382653405546762                       90                             2.350988701644575e-38  25                   25                   0                    0                    1.6579680936234491e-16    3                            0                          1                   -2.5491115391357905e-21  1.4513110121091206e-18  0.093379696220933367
              1735542.5302981746          3.19690540828253e-16      -2.3328198722148531e-19        3                              0                                 2                                2                             0                                5                              1.5389400794809783e-16             89.305549519311413                     89.382653405546762                       90                            -7.1971516238468971e-22  25                   25                   0                    0                    1.657972525953178e-16    4                            1                          1                    9.9960439220095185e-06 -1.1641532182693482e-19  0.093385435223110741
              1726615.2345995705          3.1806259169067142e-16      -1.6279491375815754e-18        4                              0                                 2                                2                             0                                6                              1.5226855960236189e-16             88.765671856133352                     89.382653405546762                       90                            -5.7577146745565936e-21  25                   25                   0                    0                    1.6579978980298341e-16    5                            2                          1                    7.9968259368841892e-05 -2.276566293504503e-19  0.093425117917793343
              1727456.1584240147          3.1805700692414893e-16      -5.5847665224947569e-21        4                              0                                 3                                3                             1                                7                              1.5226855960236189e-16             88.765671856133352                     88.765671856133352                       90                            -1.1515429349113187e-20  50                   50                   0                    0                    1.6579996275113541e-16    6                            0                          2                    7.9968259368841892e-05 -2.276566293504503e-19  0.093425117917793343
              1726177.0394015557          3.178232423469609e-16      -2.3376457718802646e-19        5                              0                                 3                                3                             0                                8                              1.5203740114081541e-16             88.688628007966074                     88.765671856133352                       90                            -1.4410330576843686e-20  50                   50                   0                    0                    1.6580025153672314e-16    7                            1                          2                    0.00010007174011696985  2.3800465795728893e-19  0.09343073591332593
              1717088.1918065522          3.1619194720246485e-16      -1.6312951444960488e-18        6                              0                                 3                                3                             0                                9                              1.5042491867273622e-16             88.14918477645486                      88.765671856133352                       90                            -3.4674600281125716e-20  50                   50                   0                    0                    1.658017031300097e-16    8                            2                          2                    0.00024079583528559552 -6.3381675216886729e-19  0.093469568768023481
# Table End
