# ODT 1.0
# Table Start
# Title: mmArchive Data Table, Wed Jun 11 15:42:50 EDT 2014
# Columns: {Oxs_CGEvolve::Max mxHxm} {Oxs_CGEvolve::Total energy} {Oxs_CGEvolve::Delta E} {Oxs_CGEvolve::Bracket count} {Oxs_CGEvolve::Line min count} {Oxs_CGEvolve::Conjugate cycle count} {Oxs_CGEvolve::Cycle count} {Oxs_CGEvolve::Cycle sub count} {Oxs_CGEvolve::Energy calc count} Oxs_UniformExchange::Energy {Oxs_UniformExchange::Max Spin Ang} {Oxs_UniformExchange::Stage Max Spin Ang} {Oxs_UniformExchange::Run Max Spin Ang} Oxs_UZeeman::Energy  Oxs_UZeeman::B       Oxs_UZeeman::Bx      Oxs_UZeeman::By      Oxs_UZeeman::Bz      Oxs_QDemag::Energy   Oxs_MinDriver::Iteration {Oxs_MinDriver::Stage iteration} Oxs_MinDriver::Stage Oxs_MinDriver::mx    Oxs_MinDriver::my    Oxs_MinDriver::mz   
# Units:              A/m                         J                          J                         {}                             {}                                {}                               {}                            {}                               {}                              J                              deg                                    deg                                      deg                            J                 mT                   mT                   mT                   mT                     J                       {}                           {}                         {}                 {}                   {}                   {}           
              1746207.4553428607          3.2179244186643785e-16       3.2179244186643785e-16        0                              0                                 1                                1                             0                                1                              1.5600000000000002e-16             90                                     90                                       90                             0                    0                    0                    0                    0                    1.6579244186643783e-16    0                            0                          0                    0                    0                    0.093333333333333338
              1744975.783300593           3.2155821945474005e-16      -2.3422241169779591e-19        1                              0                                 1                                1                             0                                2                              1.557651828520484e-16             89.922852335181432                     90                                       90                             0                    0                    0                    0                    0                    1.6579303660269167e-16    1                            1                          0                    6.0891106971420567e-24 -9.3602163057463856e-22  0.093339189685330559
              1405662.3756300765          2.7904487994586388e-16      -4.2513339508876181e-17        2                              0                                 1                                1                             0                                3                              1.1355624178116899e-16             74.413524646635565                     90                                       90                             0                    0                    0                    0                    0                    1.6548863816469489e-16    2                            2                          0                    1.1071834806999606e-21 -1.7848833522293719e-21  0.094132086053377181
              999419.56355988432          2.4452993370898181e-16      -3.4514946236882071e-17        3                              0                                 2                                2                             0                                4                              8.062211343166098e-17             58.422931629857807                     90                                       90                             0                    0                    0                    0                    0                    1.6390782027732083e-16    3                            3                          0                    1.427717203720628e-21 -2.8611187493273368e-21  0.09417595043588399
              699074.20110560546          2.2015481993696916e-16      -2.4375113772012649e-17        4                              0                                 3                                3                             0                                5                              5.9571291548556885e-17             44.036771450551669                     90                                       90                             0                    0                    0                    0                    0                    1.6058352838841229e-16    4                            4                          0                    3.2667597022534919e-21  2.8800665556142727e-22  0.092986270847519203
              649688.16545066121          2.2117927515733418e-16       1.0244552203650108e-18        4                              0                                 4                                4                             0                                6                              5.9571291548556885e-17             44.036771450551669                     44.036771450551669                       90                            -2.7991459228955721e-37  25.000000000000004   25.000000000000004   0                    0                    1.6160798360877728e-16    5                            0                          1                    3.2667597022534919e-21  2.8800665556142727e-22  0.092986270847519203
              554111.78213889501          2.0487044089710348e-16      -1.6308834260230689e-17        5                              0                                 4                                4                             0                                7                              4.793274196834081e-17             34.485409928176892                     44.036771450551669                       90                            -2.8028239158248085e-19  25.000000000000004   25.000000000000004   0                    0                    1.5721798132034516e-16    6                            1                          1                    0.0038928109942011216  1.1858800361450348e-20  0.090317074857841101
              527492.89725590404          1.9985299643738766e-16      -5.0174444597158162e-18        6                              0                                 4                                4                             0                                8                              4.4899269789878604e-17             30.803142388306952                     44.036771450551669                       90                            -3.8782480252355399e-19  25.000000000000004   25.000000000000004   0                    0                    1.5534155145003261e-16    7                            2                          1                    0.0053864555906049149  1.5754469334044391e-20  0.089130805701128871
              517109.61372606782          1.8301804733552491e-16      -1.6834949101862754e-17        7                              0                                 5                                5                             0                                9                              3.8307543129484014e-17             24.905692582373927                     44.036771450551669                       90                            -8.7825040509127366e-19  25.000000000000004   25.000000000000004   0                    0                    1.4558875461113217e-16    8                            3                          1                    0.012197922292934354  3.6541476017898982e-20  0.082399388251013742
              534431.47216530191          1.6906747716893146e-16      -1.3950570166593457e-17        8                              0                                 6                                6                             0                                10                             3.6282160208429754e-17             21.272054333932449                     44.036771450551669                       90                            -1.3929726680032572e-18  25.000000000000004   25.000000000000004   0                    0                    1.3417828962850497e-16    9                            4                          1                    0.019346842611156347  5.7908285574133816e-20  0.074080009881828557
              486083.65673408564          1.7097682707356778e-16       1.9093499046363221e-18        8                              0                                 7                                7                             0                                11                             3.6282160208429754e-17             21.272054333932449                     21.272054333932449                       90                            -2.7859453360065145e-18  50.000000000000007   50.000000000000007   0                    0                    1.3748061220114454e-16    10                           0                          2                    0.019346842611156347  5.7908285574133816e-20  0.074080009881828557
              614100.93153957522          1.6035809071115779e-16      -1.0618736362409998e-17        9                              0                                 7                                7                             0                                12                             3.6099535600645424e-17             21.52186320994273                      21.52186320994273                        90                            -4.8368414657489323e-18  50.000000000000007   50.000000000000007   0                    0                    1.2909539657626129e-16    11                           1                          2                    0.033589176845478685  7.2453884867071693e-20  0.067624941735895741
              973139.79575595143          1.5261238427902607e-16      -7.7457064321317089e-18        10                             0                                 8                                8                             0                                13                             3.7068588839708811e-17             21.554095976414175                     21.554095976414175                       90                            -6.5020664745125632e-18  50.000000000000007   50.000000000000007   0                    0                    1.2204586191382982e-16    12                           2                          2                    0.045153239406337232  7.7771902498271724e-20  0.062019999724797124
              1286889.9963532907          1.4752744938212807e-16      -5.084934896897994e-18        11                             0                                 9                                9                             0                                14                             3.7675260825204824e-17             24.281396112243499                     24.281396112243499                       90                            -7.5738016435173263e-18  50.000000000000007   50.000000000000007   0                    0                    1.1742599020044058e-16    13                           3                          2                    0.052595844746648079  7.9209409401907276e-20  0.058291482053360828
              1153430.556480515           1.4335702532027333e-16      -4.1704240618547342e-18        12                             0                                 10                               10                            0                                15                             3.7881640930399678e-17             21.572485603897434                     24.281396112243499                       90                            -8.3938798640138216e-18  50.000000000000007   50.000000000000007   0                    0                    1.1386926425388749e-16    14                           4                          2                    0.058290832388984852  7.6954620453761894e-20  0.055384496306839594
# Table End
