# ODT 1.0
# Table Start
# Title: mmArchive Data Table, Tue Mar 29 2:28:29 AM Eastern Daylight Time 2011
# Columns: {Oxs_EulerEvolve::Total energy} {Oxs_EulerEvolve::Energy calc count} {Oxs_EulerEvolve::Max dm/dt} Oxs_EulerEvolve::dE/dt {Oxs_EulerEvolve::Delta E} Oxs_UniaxialAnisotropy::Energy Oxs_UniformExchange::Energy {Oxs_UniformExchange::Max Spin Ang} {Oxs_UniformExchange::Stage Max Spin Ang} {Oxs_UniformExchange::Run Max Spin Ang} Oxs_CoarseDemag::Energy Oxs_TimeDriver::Iteration {Oxs_TimeDriver::Stage iteration} Oxs_TimeDriver::Stage Oxs_TimeDriver::mx   Oxs_TimeDriver::my   Oxs_TimeDriver::mz   {Oxs_TimeDriver::Last time step} {Oxs_TimeDriver::Simulation time}
# Units:                  J                                 {}                             deg/ns                     J/s                       J                            J                             J                              deg                                    deg                                      deg                              J                       {}                            {}                          {}                   {}                   {}                   {}                          s                                 s                
                 3.2712945089469195e-017                1                                62294.28037381632        -1.6926414241250649e-005      0                            2.9772873544049997e-018          2.6767804137871135e-017             90                                     90                                       90                              2.9678535971930586e-018      0                             0                           0                     7.9334885985762981e-019  3.708043584117183e-017  0.040000000000000001        0                                0                         
                 3.2710228362490718e-017                2                                62289.93377900093        -1.6923862056833304e-005     -2.7167269784787221e-021          2.9772848260861467e-018          2.6765127869597306e-017             89.99531093999417                      90                                       90                              2.967815666807266e-018      1                             1                           0                    -6.1915704497584584e-017  4.3944628150374799e-017  0.040002629688970386        1.6052838141787452e-016              1.6052838141787452e-016       
                 3.2706833104214793e-017                3                                62284.499193450814       -1.6920672283612461e-005     -3.3952582759199462e-021          2.9772816615616151e-018          2.6761783125621285e-017             89.989448446029343                     90                                       90                              2.9677683170318902e-018      2                             2                           0                    -4.5876260156984683e-017  4.1219647283907286e-017  0.040005916467207948        2.0066047677234314e-016              3.6118885819021766e-016       
# Table End
