# ODT 1.0
# Table Start
# Title: mmArchive Data Table, Wed Jun 11 15:43:40 EDT 2014
# Columns: {Oxs_EulerEvolve::Total energy} {Oxs_EulerEvolve::Energy calc count} {Oxs_EulerEvolve::Max dm/dt} Oxs_EulerEvolve::dE/dt {Oxs_EulerEvolve::Delta E} Oxs_UniaxialAnisotropy::Energy Oxs_UniformExchange::Energy {Oxs_UniformExchange::Max Spin Ang} {Oxs_UniformExchange::Stage Max Spin Ang} {Oxs_UniformExchange::Run Max Spin Ang} Oxs_CoarseDemag::Energy Oxs_TimeDriver::Iteration {Oxs_TimeDriver::Stage iteration} Oxs_TimeDriver::Stage Oxs_TimeDriver::mx   Oxs_TimeDriver::my   Oxs_TimeDriver::mz   {Oxs_TimeDriver::Last time step} {Oxs_TimeDriver::Simulation time}
# Units:                  J                                 {}                             deg/ns                     J/s                       J                            J                             J                              deg                                    deg                                      deg                              J                       {}                            {}                          {}                   {}                   {}                   {}                          s                                 s                
                 3.2712945089468985e-17                1                                62294.280373816298       -1.6926414241250765e-05      0                            2.9772873544050001e-18          2.6767804137871135e-17             90                                     90                                       90                              2.9678535971928502e-18      0                             0                           0                     1.6128709561329473e-18 -1.5884661816353737e-18  0.040000000000000001        0                                0                         
                 3.2710228362490509e-17                2                                62289.93377900093        -1.6923862056833239e-05     -2.7167269784799449e-21          2.9772848260861467e-18          2.6765127869597309e-17             89.995310939994155                     90                                       90                              2.9678156668070491e-18      1                             1                           0                     1.5935189299785567e-18 -1.5886346065801464e-18  0.040002629688970413        1.6052838141787457e-16              1.6052838141787457e-16       
                 3.2706833104214584e-17                3                                62284.499193450793       -1.6920672283612457e-05     -3.3952582759208121e-21          2.9772816615616151e-18          2.6761783125621285e-17             89.989448446029328                     90                                       90                              2.9677683170316849e-18      2                             2                           0                     1.5561959622169121e-18 -1.5902851710389195e-18  0.040005916467207997        2.0066047677234322e-16              3.6118885819021776e-16       
                 3.2702590047520712e-17                4                                62277.703865056457       -1.6916685781091347e-05     -4.2430566938721806e-21          2.9772776994620094e-18          2.6757603119538155e-17             89.982118502372259                     90                                       90                              2.9677092285205487e-18      3                             3                           0                     1.5891735664034192e-18 -1.5902683285444423e-18  0.040010024419730651        2.5082559596542901e-16              6.1201445415564682e-16       
                 3.2697287814052307e-17                5                                62269.206429763064       -1.6911703767542745e-05     -5.3022334684086824e-21          2.9772727367744705e-18          2.6752379555267782e-17             89.972953219938816                     90                                       90                              2.9676355220100508e-18      4                             4                           0                     1.59213784543142e-18 -1.588483024129851e-18  0.040015158547455174        3.1353199495678627e-16              9.2554644911243294e-16       
# Table End
