# ODT 1.0
# Table Start
# Title: mmArchive Data Table, Thu Dec 15 01:43:47 EST 2011
# Columns: {Oxs_EulerEvolve::Total energy} {Oxs_EulerEvolve::Energy calc count} {Oxs_EulerEvolve::Max dm/dt} Oxs_EulerEvolve::dE/dt {Oxs_EulerEvolve::Delta E} Oxs_Exchange6Ngbr:ErFeDyFe:Energy {Oxs_Exchange6Ngbr:ErFeDyFe:Max Spin Ang} {Oxs_Exchange6Ngbr:ErFeDyFe:Stage Max Spin Ang} {Oxs_Exchange6Ngbr:ErFeDyFe:Run Max Spin Ang} Southampton_CubicAnisotropy8:cubic:Energy Oxs_UZeeman::Energy  Oxs_UZeeman::B       Oxs_UZeeman::Bx      Oxs_UZeeman::By      Oxs_UZeeman::Bz      Oxs_TimeDriver::Iteration {Oxs_TimeDriver::Stage iteration} Oxs_TimeDriver::Stage Oxs_TimeDriver::mx   Oxs_TimeDriver::my   Oxs_TimeDriver::mz   {Oxs_TimeDriver::Last time step} {Oxs_TimeDriver::Simulation time}
# Units:                  J                                 {}                             deg/ns                     J/s                       J                              J                                    deg                                          deg                                            deg                                          J                              J                 mT                   mT                   mT                   mT                        {}                            {}                          {}                   {}                   {}                   {}                          s                                 s                
                -7.8601272250000034e-19                1                                63.757533334107187       -1.2339092299475945e-13      0                             0                                     0                                            0                                              0                                          -8.4711922499999994e-20            -7.013008000000003e-19  20000.001249999961   5                    5                    20000                  0                             0                           0                     0                    0                    1                          0                                0                         
                -7.8601273691139929e-19                2                                73.96541026180347        -1.6606478233228559e-13     -1.4411398917436618e-26           0                                     0                                            0                                              0                                          -8.4711928239669258e-20            -7.0130080867173002e-19  20000.001249999961   5                    5                    20000                  1                             1                           0                     0.00016557646857472792 -5.5192156191576013e-05  0.99999998476912999        1.5684421082599326e-13              1.5684421082599326e-13       
                -7.8601275889644986e-19                3                                72.478730998172352       -1.5945618204088635e-13     -2.1985050439834591e-26           0                                     0                                            0                                              0                                          -8.4711954993814612e-20            -7.0130080390263521e-19  20000.001249999961   5                    5                    20000                  2                             2                           0                     0.00037094104532918974 -6.5029452024972347e-05  0.99999992908695301        1.5926384885867195e-13              3.1610805968466518e-13       
                -7.8040235289430061e-19                4                                72.578759658884692       -1.5989662007349433e-13      0                             0                                     0                                            0                                              0                                          -8.4711954993814612e-20            -6.9569039790048596e-19  19840.001260080604   5                    5                    19840                  3                             0                           1                     0.00037094104532918974 -6.5029452024972347e-05  0.99999992908695301        0                                3.1610805968466518e-13       
                -7.8040237789803509e-19                5                                60.27503522740426        -1.1027959064660471e-13     -2.500373452901842e-26           0                                     0                                            0                                              0                                          -8.4712017254022063e-20            -6.95690360644013e-19  19840.001260080604   5                    5                    19840                  4                             1                           1                     0.00062183140185118947 -3.9538570398599379e-05  0.99999980588118587        1.9907981107333994e-13              5.151878707580051e-13       
                -7.8040239350174655e-19                7                                41.257687927633505       -5.1668990053431582e-14     -1.5603711605072024e-26           0                                     0                                            0                                              0                                          -8.4712087439960229e-20            -6.9569030606178635e-19  19840.001260080604   5                    5                    19840                  5                             2                           1                     0.0008182766107094015  1.1118326487952292e-05  0.99999966514982941        1.9284407000204339e-13              7.0803194076004852e-13       
                -7.7479198898039216e-19                8                                41.35887910304244        -5.1922754038018032e-14      0                             0                                     0                                            0                                              0                                          -8.4712087439960229e-20            -6.9007990154043196e-19  19680.001270325163   5                    5                    19680                  6                             0                           2                     0.0008182766107094015  1.1118326487952292e-05  0.99999966514982941        0                                7.0803194076004852e-13       
                -7.7479199449889713e-19                10                               28.032534526204341       -2.3853105611642057e-14     -5.5185048282146523e-27           0                                     0                                            0                                              0                                          -8.4712127443954951e-20            -6.9007986705494213e-19  19680.001270325163   5                    5                    19680                  7                             1                           2                     0.00091378792326123244  4.8955772253421937e-05  0.99999958129739297        1.4231945563639272e-13              8.5035139639644129e-13       
                -7.7479199644787747e-19                12                               19.136858211716888       -1.1116331204651336e-14     -1.9489805400371562e-27           0                                     0                                            0                                              0                                          -8.471214822767347e-20            -6.9007984822020402e-19  19680.001270325163   5                    5                    19680                  8                             2                           2                     0.00096114863916010298  7.5392284127322933e-05  0.99999953525454           1.1086037363828968e-13              9.6121177003473096e-13       
                -7.6918159265528842e-19                13                               19.027418172864991       -1.0989550409726749e-14      0                             0                                     0                                            0                                              0                                          -8.471214822767347e-20            -6.8446944442761497e-19  19520.001280737662   4.9999999999999991   4.9999999999999991   19520                  9                             0                           3                     0.00096114863916010298  7.5392284127322933e-05  0.99999953525454           0                                9.6121177003473096e-13       
                -7.6918159350459396e-19                14                               12.429544121538061       -4.6895438404233731e-15     -8.4930554032325798e-28           0                                     0                                            0                                              0                                          -8.471216184645954e-20            -6.8446943165813447e-19  19520.001280737662   4.9999999999999991   4.9999999999999991   19520                  10                            1                           3                     0.00099185655898586232  9.570045095427137e-05  0.99999950353087197        1.1086037617875712e-13              1.0720721462134882e-12       
                -7.6918159376422261e-19                16                               8.8308311775730601       -2.3671368383553002e-15     -2.5962859392166143e-28           0                                     0                                            0                                              0                                          -8.4712167078834523e-20            -6.8446942668538807e-19  19520.001280737662   4.9999999999999991   4.9999999999999991   19520                  11                            2                           3                     0.0010041554644563779  0.00010773804236404754  0.99999949003202893        7.9329673386741965e-14              1.15140181960023e-12       
                -7.6357119022535018e-19                17                               8.3491131936134195       -2.1159280591553615e-15      0                             0                                     0                                            0                                              0                                          -8.4712167078834523e-20            -6.7885902314651564e-19  19360.001291322271   5                    5                    19360                  12                            0                           4                     0.0010041554644563779  0.00010773804236404754  0.99999949003202893        0                                1.15140181960023e-12       
                -7.6357119033887893e-19                18                               5.8989941251702191       -1.0562728741078302e-15     -1.1352881789207462e-28           0                                     0                                            0                                              0                                          -8.4712170335667413e-20            -6.7885902000321154e-19  19360.001291322271   5                    5                    19360                  13                            1                           4                     0.0010119891258899931  0.00011623889710559617  0.99999948118312931        7.9329673497505647e-14              1.2307314930977356e-12       
                -7.6357119038324408e-19                20                               4.5150009765813133       -6.1877947090457947e-16     -4.4365078210830726e-29           0                                     0                                            0                                              0                                          -8.4712171476581596e-20            -6.7885901890666253e-19  19360.001291322271   5                    5                    19360                  14                            2                           4                     0.001015192318783883  0.00012201869292654574  0.99999947724785998        6.4182829653593057e-14              1.2949143227513287e-12       
                -7.5796078691609617e-19                21                               3.653638123153828        -4.052017011432721e-16      0                             0                                     0                                            0                                              0                                          -8.4712171476581596e-20            -6.7324861543951462e-19  19200.001302083288   5                    5                    19200                  15                            0                           5                     0.001015192318783883  0.00012201869292654574  0.99999947724785998        0                                1.2949143227513287e-12       
                -7.5796078693327585e-19                22                               2.7916401153194896       -2.3655877385405496e-16     -1.7179846763610854e-29           0                                     0                                            0                                              0                                          -8.4712172201398782e-20            -6.7324861473187711e-19  19200.001302083288   5                    5                    19200                  16                            1                           5                     0.0010172251479883079  0.000125570974764435  0.99999947474232587        6.418282964062792e-14              1.3590971523919566e-12       
                -7.5796078694227331e-19                23                               2.2847199490631662       -1.5844777577760112e-16     -8.9974701404571541e-30           0                                     0                                            0                                              0                                          -8.4712172326540594e-20            -6.7324861461573275e-19  19200.001302083288   5                    5                    19200                  17                            2                           5                     0.0010179934544768936  0.00012864081593897105  0.99999947357029539        6.4948898378501962e-14              1.4240460507704587e-12       
                -7.5235038349575789e-19                24                               1.1679639878821462       -4.1407508927179931e-17      0                             0                                     0                                            0                                              0                                          -8.4712172326540594e-20            -6.6763821116921733e-19  19040.001313025165   5                    5                    19040                  18                            0                           6                     0.0010179934544768936  0.00012864081593897105  0.99999947357029539        0                                1.4240460507704587e-12       
                -7.5235038349740292e-19                25                               0.91968734610466296      -2.5674418841894335e-17     -1.6450881958007827e-30           0                                     0                                            0                                              0                                          -8.4712172510545843e-20            -6.6763821098685709e-19  19040.001313025165   5                    5                    19040                  19                            1                           6                     0.0010185409687118408  0.00012969444887981011  0.99999947287668356        5.8249150801672441e-14              1.4822952015721312e-12       
                -7.4673998005477884e-19                26                               1.0815183273638787       -3.5504873231468817e-17      0                             0                                     0                                            0                                              0                                          -8.4712172510545843e-20            -6.6202780754423301e-19  18880.001324152498   4.9999999999999991   4.9999999999999991   18880                  20                            0                           7                     0.0010185409687118408  0.00012969444887981011  0.99999947287668356        0                                1.4822952015721312e-12       
# Table End
