# ODT 1.0
# Table Start
# Title: mmArchive Data Table, Thu Dec 15 01:43:46 EST 2011
# Columns: {Oxs_EulerEvolve::Total energy} {Oxs_EulerEvolve::Energy calc count} {Oxs_EulerEvolve::Max dm/dt} Oxs_EulerEvolve::dE/dt {Oxs_EulerEvolve::Delta E} Oxs_Exchange6Ngbr:ErFeDyFe:Energy {Oxs_Exchange6Ngbr:ErFeDyFe:Max Spin Ang} {Oxs_Exchange6Ngbr:ErFeDyFe:Stage Max Spin Ang} {Oxs_Exchange6Ngbr:ErFeDyFe:Run Max Spin Ang} Southampton_CubicAnisotropy8:cubic:Energy Oxs_UZeeman::Energy  Oxs_UZeeman::B       Oxs_UZeeman::Bx      Oxs_UZeeman::By      Oxs_UZeeman::Bz      Oxs_TimeDriver::Iteration {Oxs_TimeDriver::Stage iteration} Oxs_TimeDriver::Stage Oxs_TimeDriver::mx   Oxs_TimeDriver::my   Oxs_TimeDriver::mz   {Oxs_TimeDriver::Last time step} {Oxs_TimeDriver::Simulation time}
# Units:                  J                                 {}                             deg/ns                     J/s                       J                              J                                    deg                                          deg                                            deg                                          J                              J                 mT                   mT                   mT                   mT                        {}                            {}                          {}                   {}                   {}                   {}                          s                                 s                
                -7.8188671500000037e-19                1                                63.757533334107187       -1.2339092299475945e-13      0                             0                                     0                                            0                                              0                                          -8.0585915000000057e-20            -7.013008000000003e-19  20000.001249999961   5                    5                    20000                  0                             0                           0                     0                    0                    1                          0                                0                         
                -7.818867356164621e-19                2                                84.162858487635575       -2.1501123527250438e-13     -2.0616461783647522e-26           0                                     0                                            0                                              0                                          -8.0585926944732056e-20            -7.0130080867173002e-19  20000.001249999961   5                    5                    20000                  1                             1                           0                     0.00016557646857472792 -5.5192156191576013e-05  0.99999998476912999        1.5684421082599326e-13              1.5684421082599326e-13       
                -7.818867743355165e-19                3                                108.27130638597525       -3.5583359922899822e-13     -3.871905431151392e-26           0                                     0                                            0                                              0                                          -8.0585984416748525e-20            -7.0130078991876796e-19  20000.001249999961   5                    5                    20000                  2                             2                           0                     0.00039539200043262805 -0.00011415828121805552  0.99999991531652321        1.61519970517752e-13              3.1836418134374526e-13       
                -7.7627636841062506e-19                4                                108.51033090960108       -3.5740644142924206e-13      0                             0                                     0                                            0                                              0                                          -8.0585984416748525e-20            -6.9569038399387652e-19  19840.001260080604   5                    5                    19840                  3                             0                           1                     0.00039539200043262805 -0.00011415828121805552  0.99999991531652321        0                                3.1836418134374526e-13       
                -7.7627644710996124e-19                5                                144.05709685839744       -6.2992597411565337e-13     -7.8699336051940897e-26           0                                     0                                            0                                              0                                          -8.0586165115777779e-20            -6.9569028199418343e-19  19840.001260080604   5                    5                    19840                  4                             1                           1                     0.00074723520782010787 -0.00019812976858226141  0.99999970119202441        1.9099850335770141e-13              5.0936268470144664e-13       
                -7.7627659242264261e-19                6                                192.03303495644965       -1.1193659475942247e-12     -1.4531268149614344e-25           0                                     0                                            0                                              0                                          -8.0586599012893943e-20            -6.9568999340974868e-19  19840.001260080604   5                    5                    19840                  5                             2                           1                     0.001232766214927997 -0.00030979935623856353  0.99999919215558253        1.9815191650291463e-13              7.0751460120436135e-13       
                -7.7066619055497798e-19                7                                192.82412668181829       -1.1286075358240939e-12      0                             0                                     0                                            0                                              0                                          -8.0586599012893943e-20            -6.9007959154208405e-19  19680.001270325163   5                    5                    19680                  6                             0                           2                     0.001232766214927997 -0.00030979935623856353  0.99999919215558253        0                                7.0751460120436135e-13       
                -7.7066645734472185e-19                8                                259.93378107360422       -2.0509054919005229e-12     -2.6678974390029914e-25           0                                     0                                            0                                              0                                          -8.0587534248678605e-20            -6.9007892309604329e-19  19680.001270325163   5                    5                    19680                  7                             1                           2                     0.0018951829380567658 -0.0004669261486097225  0.99999809512898674        2.0229242491878471e-13              9.0980702612314612e-13       
                -7.7066693043789418e-19                9                                347.43002056745439       -3.6639950957822377e-12     -4.7309317231178263e-25           0                                     0                                            0                                              0                                          -8.0589374597797749e-20            -6.9007755584009647e-19  19680.001270325163   5                    5                    19680                  8                             2                           2                     0.0027682757560933669 -0.00067028838641161506  0.99999594367318201        1.9760322410837377e-13              1.1074102502315199e-12       
                -7.6505654679553621e-19                10                               349.25246208936784       -3.7025348279397477e-12      0                             0                                     0                                            0                                              0                                          -8.0589374597797749e-20            -6.844671721977385e-19  19520.001280737662   4.9999999999999991   4.9999999999999991   19520                  9                             0                           3                     0.0027682757560933669 -0.00067028838641161506  0.99999594367318201        0                                1.1074102502315199e-12       
                -7.6505740976100469e-19                11                               471.61112356899508       -6.7513135686308836e-12     -8.6296546846628168e-25           0                                     0                                            0                                              0                                          -8.0592959202785225e-20            -6.8446445055821941e-19  19520.001280737662   4.9999999999999991   4.9999999999999991   19520                  10                            1                           3                     0.003950403628851208 -0.00095795399649751492  0.99999173828352617        1.9959191096643201e-13              1.3070021611979519e-12       
                -7.6505893480851829e-19                12                               629.83386787320501       -1.204126792643155e-11     -1.5250475138425836e-24           0                                     0                                            0                                              0                                          -8.0599581744061234e-20            -6.8445935306445709e-19  19520.001280737662   4.9999999999999991   4.9999999999999991   19520                  11                            2                           3                     0.0055013197957569726 -0.0013263433578916315  0.99998398801870969        1.936648875691705e-13              1.5006670487671223e-12       
                -7.594486182422408e-19                13                               633.49496205477726       -1.2181661590285595e-11      0                             0                                     0                                            0                                              0                                          -8.0599581744061234e-20            -6.788490364981796e-19  19360.001291322271   5                    5                    19360                  12                            0                           4                     0.0055013197957569726 -0.0013263433578916315  0.99998398801870969        0                                1.5006670487671223e-12       
                -7.5945140736664057e-19                14                               855.53735399109712       -2.2217651590817691e-11     -2.7891243997216217e-24           0                                     0                                            0                                              0                                          -8.0612027794724131e-20            -6.7883937957191641e-19  19360.001291322271   5                    5                    19360                  13                            1                           4                     0.0076071182028728031 -0.0018499889116406151  0.99996935417725341        1.9626172931976589e-13              1.6969287780868882e-12       
                -7.5945633615544498e-19                15                               1141.9022776862023       -3.9580208536717431e-11     -4.9287888042628745e-24           0                                     0                                            0                                              0                                          -8.0634435322646517e-20            -6.7882190083279851e-19  19360.001291322271   5                    5                    19360                  14                            2                           4                     0.010369377022111126 -0.0025180517603279064  0.99994306609701777        1.9033206993015251e-13              1.8872608480170407e-12       
                -7.5384624917777846e-19                16                               1148.8371210117773       -4.0062414457717677e-11      0                             0                                     0                                            0                                              0                                          -8.0634435322646517e-20            -6.7321181385513199e-19  19200.001302083288   5                    5                    19200                  15                            0                           5                     0.010369377022111126 -0.0025180517603279064  0.99994306609701777        0                                1.8872608480170407e-12       
                -7.5385527595237253e-19                17                               1550.9255792588131       -7.3013323441909326e-11     -9.0267745940387316e-24           0                                     0                                            0                                              0                                          -8.0675873969419901e-20            -6.7317940198295266e-19  19200.001302083288   5                    5                    19200                  16                            1                           5                     0.014126905408300637 -0.0034689911720806581  0.99989419272432645        1.9332316153179154e-13              2.0805840095488323e-12       
                -7.5387123469088308e-19                18                               2068.5564216962216       -1.2988378674152761e-10     -1.5958738510459666e-23           0                                     0                                            0                                              0                                          -8.0749638700053836e-20            -6.7312159599082922e-19  19200.001302083288   5                    5                    19200                  17                            2                           5                     0.019061323676822856 -0.0046802824618413256  0.99980736189316188        1.8773330577713667e-13              2.2683173153259691e-12       
                -7.4826190906895059e-19                19                               2081.3175758972998       -1.3149126484794715e-10      0                             0                                     0                                            0                                              0                                          -8.0749638700053836e-20            -6.6751227036889673e-19  19040.001313025165   5                    5                    19040                  18                            0                           6                     0.019061323676822856 -0.0046802824618413256  0.99980736189316188        0                                2.2683173153259691e-12       
                -7.4829115850528556e-19                20                               2806.4603523133169       -2.3907712355494512e-10     -2.9249436335116646e-23           0                                     0                                            0                                              0                                          -8.0885124993331641e-20            -6.6740603351195388e-19  19040.001313025165   5                    5                    19040                  19                            1                           6                     0.02578810595005809 -0.0064031224085423968  0.9996469244763021         1.9121044841644608e-13              2.4595277637424152e-12       
                -7.4834290951744376e-19                21                               3735.8453098081686       -4.236409856459885e-10     -5.1751012157946811e-23           0                                     0                                            0                                              0                                          -8.1125570836639085e-20            -6.6721733868080463e-19  19040.001313025165   5                    5                    19040                  20                            2                           6                     0.034650610247991195 -0.0085933042150485566  0.99936254198969798        1.8647343087787866e-13              2.6460011946202937e-12       
# Table End
