# ODT 1.0
# Table Start
# Title: mmArchive Data Table, Thu Dec 15 01:43:46 EST 2011
# Columns: {Oxs_EulerEvolve::Total energy} {Oxs_EulerEvolve::Energy calc count} {Oxs_EulerEvolve::Max dm/dt} Oxs_EulerEvolve::dE/dt {Oxs_EulerEvolve::Delta E} Oxs_Exchange6Ngbr:ErFeDyFe:Energy {Oxs_Exchange6Ngbr:ErFeDyFe:Max Spin Ang} {Oxs_Exchange6Ngbr:ErFeDyFe:Stage Max Spin Ang} {Oxs_Exchange6Ngbr:ErFeDyFe:Run Max Spin Ang} Southampton_CubicAnisotropy8:cubic:Energy Oxs_UZeeman::Energy  Oxs_UZeeman::B       Oxs_UZeeman::Bx      Oxs_UZeeman::By      Oxs_UZeeman::Bz      Oxs_TimeDriver::Iteration {Oxs_TimeDriver::Stage iteration} Oxs_TimeDriver::Stage Oxs_TimeDriver::mx   Oxs_TimeDriver::my   Oxs_TimeDriver::mz   {Oxs_TimeDriver::Last time step} {Oxs_TimeDriver::Simulation time}
# Units:                  J                                 {}                             deg/ns                     J/s                       J                              J                                    deg                                          deg                                            deg                                          J                              J                 mT                   mT                   mT                   mT                        {}                            {}                          {}                   {}                   {}                   {}                          s                                 s                
                -7.8738806000000031e-19                1                                63.757533334107187       -1.2339092299475945e-13      0                             0                                     0                                            0                                              0                                          -8.608725999999999e-20            -7.013008000000003e-19  20000.001249999961   5                    5                    20000                  0                             0                           0                     0                    0                    1                          0                                0                         
                -7.8738807234304488e-19                2                                71.369125363744374       -1.5461119915474581e-13     -1.2343044430017484e-26           0                                     0                                            0                                              0                                          -8.608726367131484e-20            -7.0130080867173002e-19  20000.001249999961   5                    5                    20000                  1                             1                           0                     0.00016557646857472792 -5.5192156191576013e-05  0.99999998476912999        1.5684421082599326e-13              1.5684421082599326e-13       
                -7.8738808827550478e-19                3                                64.492569649957076       -1.2625237666655406e-13     -1.5932459980249409e-26           0                                     0                                            0                                              0                                          -8.6087278532227345e-20            -7.0130080974327738e-19  20000.001249999961   5                    5                    20000                  2                             2                           0                     0.00033556033818458661 -4.9821821951723599e-05  0.99999994245852075        1.3653268178979645e-13              2.9337689261578971e-13       
                -7.8177768219833564e-19                4                                64.531538181498377       -1.2640499443702136e-13      0                             0                                     0                                            0                                              0                                          -8.6087278532227345e-20            -6.9569040366610835e-19  19840.001260080604   5                    5                    19840                  3                             0                           1                     0.00033556033818458661 -4.9821821951723599e-05  0.99999994245852075        0                                2.9337689261578971e-13       
                -7.8177769626521365e-19                5                                47.083608281195588       -6.7291417267689737e-14     -1.4066878110170367e-26           0                                     0                                            0                                              0                                          -8.6087307011550651e-20            -6.9569038925366304e-19  19840.001260080604   5                    5                    19840                  4                             1                           1                     0.00052259560898285627 -5.4834191241329014e-06  0.99999986343187086        1.7066585223724557e-13              4.6404274485303533e-13       
                -7.8177770103941699e-19                7                                33.624474464274165       -3.4318730167317373e-14     -4.7742031514644632e-27           0                                     0                                            0                                              0                                          -8.6087320718798487e-20            -6.9569038032061852e-19  19840.001260080604   5                    5                    19840                  5                             2                           1                     0.00059596314151413637  3.5450193709936276e-05  0.99999982178559232        1.0223620327542018e-13              5.6627894812845548e-13       
                -7.7616729563927213e-19                8                                33.460524801993508       -3.3984876504503178e-14      0                             0                                     0                                            0                                              0                                          -8.6087320718798487e-20            -6.9007997492047366e-19  19680.001270325163   5                    5                    19680                  6                             0                           2                     0.00059596314151413637  3.5450193709936276e-05  0.99999982178559232        0                                5.6627894812845548e-13       
                -7.7616729753057405e-19                10                               24.30712919590367        -1.7934428347602117e-14     -1.8913020193576822e-27           0                                     0                                            0                                              0                                          -8.6087327335420956e-20            -6.9007997019515312e-19  19680.001270325163   5                    5                    19680                  7                             1                           2                     0.00063234256389149669  6.6214401983003999e-05  0.99999979787924742        8.1581783383728733e-14              6.4786073151218419e-13       
                -7.7616729832033407e-19                12                               18.467055587078235       -1.0351791414390983e-14     -7.8975990414619422e-28           0                                     0                                            0                                              0                                          -8.6087329807936584e-20            -6.9007996851239754e-19  19680.001270325163   5                    5                    19680                  8                             2                           2                     0.00064910838035219594  8.9142364809237799e-05  0.99999978535595124        6.6952633726450074e-14              7.1481336523863424e-13       
                -7.7055689312457429e-19                13                               17.937384030706976       -9.7664878059475855e-15      0                             0                                     0                                            0                                              0                                          -8.6087329807936584e-20            -6.8446956331663766e-19  19520.001280737662   4.9999999999999991   4.9999999999999991   19520                  9                             0                           3                     0.00064910838035219594  8.9142364809237799e-05  0.99999978535595124        0                                7.1481336523863424e-13       
                -7.705568935108283e-19                14                               14.13134891904261        -6.0616023011349658e-15     -3.8625404238700847e-28           0                                     0                                            0                                              0                                          -8.6087330317939071e-20            -6.8446956319288924e-19  19520.001280737662   4.9999999999999991   4.9999999999999991   19520                  10                            1                           3                     0.00065722291497367327  0.00010846856189478719  0.99999977814628005        6.6952633514938454e-14              7.8176599875357273e-13       
                -7.7055689372380341e-19                15                               12.54729203219968        -4.7788149297363153e-15     -2.1297499537467948e-28           0                                     0                                            0                                              0                                          -8.608732927109743e-20            -6.8446956445270598e-19  19520.001280737662   4.9999999999999991   4.9999999999999991   19520                  11                            2                           3                     0.00065776632417464227  0.00012313723409474345  0.99999977609031676        5.9515162445052195e-14              8.4128116119862486e-13       
                -7.6494648858002766e-19                16                               11.632649254492105       -4.107499002678507e-15      0                             0                                     0                                            0                                              0                                          -8.608732927109743e-20            -6.7885915930893023e-19  19360.001291322271   5                    5                    19360                  12                            0                           4                     0.00065776632417464227  0.00012313723409474345  0.99999977609031676        0                                8.4128116119862486e-13       
                -7.6494648872691939e-19                17                               11.373715158872434       -3.9266744352163802e-15     -1.4689177274703983e-28           0                                     0                                            0                                              0                                          -8.6087327554429043e-20            -6.7885916117249037e-19  19360.001291322271   5                    5                    19360                  13                            1                           4                     0.00065434821161831555  0.0001338116643203167  0.99999977696140308        5.5205889942497948e-14              8.9648705114112278e-13       
                -7.6494648888829171e-19                18                               11.827967943118303       -4.2465914128707903e-15     -1.6137242317199705e-28           0                                     0                                            0                                              0                                          -8.6087325136148987e-20            -6.7885916375214276e-19  19360.001291322271   5                    5                    19360                  14                            2                           4                     0.00064749269713906355  0.00014305919016072117  0.99999978014361346        5.798992075736356e-14              9.5447697189848635e-13       
                -7.5933608372177535e-19                19                               10.901119295502895       -3.6071348989324091e-15      0                             0                                     0                                            0                                              0                                          -8.6087325136148987e-20            -6.732487585856264e-19  19200.001302083288   5                    5                    19200                  15                            0                           5                     0.00064749269713906355  0.00014305919016072117  0.99999978014361346        0                                9.5447697189848635e-13       
                -7.5933608390933974e-19                20                               11.674015813321279       -4.1367640836017431e-15     -1.8756419420242324e-28           0                                     0                                            0                                              0                                          -8.6087322059126188e-20            -6.7324876185021353e-19  19200.001302083288   5                    5                    19200                  16                            1                           5                     0.00063705235033519123  0.00015065244836086529  0.99999978573404857        6.7852397838525265e-14              1.0223293697370116e-12       
                -7.593360841888486e-19                21                               12.445698763098886       -4.7017417344479964e-15     -2.7950897812843304e-28           0                                     0                                            0                                              0                                          -8.6087317900469294e-20            -6.7324876628837936e-19  19200.001302083288   5                    5                    19200                  17                            2                           5                     0.00062106553061389599  0.00015721445705797266  0.99999979478058909        8.4815497298156588e-14              1.1071448670351682e-12       
                -7.5372567894021299e-19                22                               11.742565250699968       -4.1854886048425429e-15      0                             0                                     0                                            0                                              0                                          -8.6087317900469294e-20            -6.6763836103974374e-19  19040.001313025165   5                    5                    19040                  18                            0                           6                     0.00062106553061389599  0.00015721445705797266  0.99999979478058909        0                                1.1071448670351682e-12       
                -7.5372567930368306e-19                23                               11.721479541101935       -4.1704706325217611e-15     -3.6346986889839167e-28           0                                     0                                            0                                              0                                          -8.6087313069092354e-20            -6.6763836623459069e-19  19040.001313025165   5                    5                    19040                  19                            1                           6                     0.00059951425493476979  0.0001599823079986114  0.99999980749413986        1.0601937162269573e-13              1.2131642386578639e-12       
                -7.5372567973675499e-19                24                               10.579893143062016       -3.3976822573041921e-15     -4.3307200074195861e-28           0                                     0                                            0                                              0                                          -8.6087307740974951e-20            -6.6763837199578007e-19  19040.001313025165   5                    5                    19040                  20                            2                           6                     0.00057243127533322289  0.00015873713891628925  0.99999982356246264        1.3252421452836965e-13              1.3456884531862335e-12       
# Table End
