# ODT 1.0
# Table Start
# Title: mmArchive Data Table, Wed Jun 11 15:42:46 EDT 2014
# Columns: {Oxs_EulerEvolve::Total energy} {Oxs_EulerEvolve::Energy calc count} {Oxs_EulerEvolve::Max dm/dt} Oxs_EulerEvolve::dE/dt {Oxs_EulerEvolve::Delta E} Oxs_Exchange6Ngbr:ErFeDyFe:Energy {Oxs_Exchange6Ngbr:ErFeDyFe:Max Spin Ang} {Oxs_Exchange6Ngbr:ErFeDyFe:Stage Max Spin Ang} {Oxs_Exchange6Ngbr:ErFeDyFe:Run Max Spin Ang} Southampton_CubicAnisotropy8:cubic:Energy Oxs_UZeeman::Energy  Oxs_UZeeman::B       Oxs_UZeeman::Bx      Oxs_UZeeman::By      Oxs_UZeeman::Bz      Oxs_TimeDriver::Iteration {Oxs_TimeDriver::Stage iteration} Oxs_TimeDriver::Stage Oxs_TimeDriver::mx   Oxs_TimeDriver::my   Oxs_TimeDriver::mz   {Oxs_TimeDriver::Last time step} {Oxs_TimeDriver::Simulation time}
# Units:                  J                                 {}                             deg/ns                     J/s                       J                              J                                    deg                                          deg                                            deg                                          J                              J                 mT                   mT                   mT                   mT                        {}                            {}                          {}                   {}                   {}                   {}                          s                                 s                
                -7.8463738750000024e-19                1                                63.757533334107194       -1.2339092299475942e-13      0                             0                                     0                                            0                                              0                                          -8.3336587500000017e-20            -7.013008000000002e-19  20000.001249999961   5                    5                    20000                  0                             0                           0                     0                    0                    1                          0                                0                         
                -7.8463740397975339e-19                2                                76.995439205951286       -1.7994931631187448e-13     -1.6479753174644433e-26           0                                     0                                            0                                              0                                          -8.3336595308023394e-20            -7.0130080867173002e-19  20000.001249999961   5                    5                    20000                  1                             1                           0                     0.00016557646857472786 -5.5192156191575952e-05  0.99999998476912921        1.5684421082599323e-13              1.5684421082599323e-13       
                -7.8463743350653772e-19                3                                83.712969516016869       -2.12718712203584e-13     -2.9526784327390496e-26           0                                     0                                            0                                              0                                          -8.3336636758932595e-20            -7.0130079674760508e-19  20000.001249999961   5                    5                    20000                  2                             2                           0                     0.00040089702118925103 -8.3924247585186461e-05  0.99999991611914607        1.7641309635056701e-13              3.3325730717656027e-13       
                -7.8463747727148533e-19                4                                83.504274566803005       -2.1165942628371981e-13     -4.3764947626987131e-26           0                                     0                                            0                                              0                                          -8.3336752484681333e-20            -7.0130072478680397e-19  20000.001249999961   5                    5                    20000                  3                             3                           0                     0.00072302478990748334 -9.0211299911056731e-05  0.999999734548502          2.2051637043820876e-13              5.5377367761476898e-13       
                -7.846375305534226e-19                5                                75.283968766523358       -1.72038327292368e-13     -5.3281937245919849e-26           0                                     0                                            0                                              0                                          -8.3336991138122806e-20            -7.0130053941529976e-19  20000.001249999961   5                    5                    20000                  4                             4                           0                     0.0011243431116715573 -7.1978969478470628e-05  0.99999936533559619        2.7564546304776098e-13              8.2941914066253001e-13       
                -7.7902712771414779e-19                6                                75.800382068369828       -1.7440662940750682e-13      0                             0                                     0                                            0                                              0                                          -8.3336991138122806e-20            -6.9569013657602504e-19  19840.001260080608   5                    5                    19840                  5                             0                           1                     0.0011243431116715573 -7.1978969478470628e-05  0.99999936533559619        0                                8.2941914066253001e-13       
                -7.7902718156363668e-19                7                                63.7770396744219         -1.2346643637806997e-13     -5.3849488885680337e-26           0                                     0                                            0                                              0                                          -8.3337386495182153e-20            -6.9568979506845453e-19  19840.001260080608   5                    5                    19840                  6                             1                           1                     0.0015791809593342779 -4.1820343919006761e-05  0.99999875221849976        3.4455682880970121e-13              1.1739759694722312e-12       
                -7.7902722714352896e-19                8                                46.715242413446575       -6.6242606592888307e-14     -4.557989227272629e-26           0                                     0                                            0                                              0                                          -8.3337943342412536e-20            -6.9568928380111643e-19  19840.001260080608   5                    5                    19840                  7                             2                           1                     0.0020564240175155032  3.7653243665140836e-06  0.99999788555080582        4.306960360121265e-13              1.6046720054843577e-12       
                -7.7902725612772171e-19                9                                29.352844275187252       -2.6152943807269424e-14     -2.898419275290508e-26           0                                     0                                            0                                              0                                          -8.3338579039093683e-20            -6.9568867708862804e-19  19840.001260080608   5                    5                    19840                  8                             3                           1                     0.0024928353691811523  5.0912156057444958e-05  0.99999689158505611        5.3837004501515809e-13              2.1430420504995158e-12       
                -7.7902726678050236e-19                10                               19.185907234838314       -1.1173388003613291e-14     -1.0652780631935458e-26           0                                     0                                            0                                              0                                          -8.3338998916067813e-20            -6.9568826786443451e-19  19840.001260080608   5                    5                    19840                  9                             4                           1                     0.0027436195760070642  7.8590836115308003e-05  0.99999623318045683        4.9249661441599247e-13              2.6355386649155083e-12       
                -7.7341688151389086e-19                11                               20.988647511537735       -1.3371776453358109e-14      0                             0                                     0                                            0                                              0                                          -8.3338998916067813e-20            -6.9007788259782301e-19  19680.001270325163   5                    5                    19680                  10                            0                           2                     0.0027436195760070642  7.8590836115308003e-05  0.99999623318045683        0                                2.6355386649155083e-12       
                -7.7341688712276537e-19                12                               23.675987908848089       -1.7015174940594754e-14     -5.6088745099987148e-27           0                                     0                                            0                                              0                                          -8.3339320344641075e-20            -6.9007756677812429e-19  19680.001270325163   5                    5                    19680                  11                            1                           2                     0.0029203229610675523  6.6845971707950108e-05  0.99999573361360838        4.8343933244335114e-13              3.1189779973588593e-12       
                -7.7341689546859654e-19                13                               14.450671710062011       -6.3386426621584058e-15     -8.3458311847061873e-27           0                                     0                                            0                                              0                                          -8.3339804024960471e-20            -6.9007709144363606e-19  19680.001270325163   5                    5                    19680                  12                            2                           2                     0.0031687481341004828  9.2141837914029175e-05  0.99999497525994818        6.042991655541889e-13              3.7232771629130481e-12       
                -7.7341689828427117e-19                14                               9.9897782164587081       -3.0292275132593111e-15     -2.8156746072636457e-27           0                                     0                                            0                                              0                                          -8.3340077924061292e-20            -6.9007682036020982e-19  19680.001270325163   5                    5                    19680                  13                            3                           2                     0.0033011604530992036  0.00010419946627285385  0.99999454572619251        5.2717942334276147e-13              4.2504565862558094e-12       
                -7.7341689973278436e-19                15                               6.451885387852597        -1.2635530705271603e-15     -1.448513217546861e-27           0                                     0                                            0                                              0                                          -8.3340293808132165e-20            -6.9007660592465214e-19  19680.001270325163   5                    5                    19680                  14                            4                           2                     0.0034019307713191141  0.00011382249706062073  0.99999420693895336        5.8059473382244775e-13              4.8310513200782572e-12       
                -7.6780652583421114e-19                16                               9.5177503756326978       -2.7497222010496962e-15      0                             0                                     0                                            0                                              0                                          -8.3340293808132165e-20            -6.8446623202607892e-19  19520.001280737666   5                    5                    19520                  15                            0                           3                     0.0034019307713191141  0.00011382249706062073  0.99999420693895336        0                                4.8310513200782572e-12       
                -7.6780652616512539e-19                19                               11.719477933845024       -4.169046421266726e-15     -3.3091424520534936e-28           0                                     0                                            0                                              0                                          -8.3340343285691711e-20            -6.8446618287943362e-19  19520.001280737666   5                    5                    19520                  16                            1                           3                     0.0034242353019877936  0.00010438237205344849  0.99999413184124086        1.4580231465187542e-13              4.9768536347301326e-12       
                -7.6780652673631269e-19                20                               13.019120873560631       -5.1449779507946084e-15     -5.7118730714137209e-28           0                                     0                                            0                                              0                                          -8.3340408379857939e-20            -6.8446611835645475e-19  19520.001280737666   5                    5                    19520                  17                            2                           3                     0.0034536007264412863  9.9179665798192112e-05  0.99999403138489584        1.4580233907553759e-13              5.1226559738056708e-12       
                -7.6780652763089347e-19                21                               13.708628463404757       -5.7043768924397097e-15     -8.9458081267366672e-28           0                                     0                                            0                                              0                                          -8.3340500577495801e-20            -6.8446602705339766e-19  19520.001280737666   5                    5                    19520                  18                            3                           3                     0.0034949012237820236  9.6136638629885088e-05  0.99999388819291424        1.82252923844422e-13              5.3049088976500926e-12       
                -7.6780652886601054e-19                22                               13.5436630737198         -5.5679135315408145e-15     -1.2351170258625646e-27           0                                     0                                            0                                              0                                          -8.3340623695903111e-20            -6.8446590517010742e-19  19520.001280737666   5                    5                    19520                  19                            4                           3                     0.0035494074116880995  9.5818691785833638e-05  0.99999369624303336        2.2781615480552751e-13              5.5327250524556201e-12       
                -7.6219615783264889e-19                23                               16.443181604379877       -8.2071412176959417e-15      0                             0                                     0                                            0                                              0                                          -8.3340623695903111e-20            -6.7885553413674577e-19  19360.001291322271   5                    5                    19360                  20                            0                           4                     0.0035494074116880995  9.5818691785833638e-05  0.99999369624303336        0                                5.5327250524556201e-12       
                -7.6219615949246751e-19                25                               20.656623627453833       -1.2952060749036972e-14     -1.6598185900511455e-27           0                                     0                                            0                                              0                                          -8.3340773838066647e-20            -6.7885538565440086e-19  19360.001291322271   5                    5                    19360                  21                            1                           4                     0.0036143777404401166  7.9496698464604865e-05  0.99999346495555874        2.3342322822049006e-13              5.7661482806761104e-12       
                -7.6219616237238817e-19                26                               21.461341519484161       -1.3980861418023557e-14     -2.87992061523255e-27           0                                     0                                            0                                              0                                          -8.3340971122442263e-20            -6.7885519124994586e-19  19360.001291322271   5                    5                    19360                  22                            2                           4                     0.0036984417343403318  7.5592181660011446e-05  0.99999315788387255        2.3342327565501789e-13              5.9995715563311283e-12       
                -7.6219616622413867e-19                27                               20.443723692526579       -1.2686452707104641e-14     -3.8517505510390048e-27           0                                     0                                            0                                              0                                          -8.3341234001122944e-20            -6.7885493222301575e-19  19360.001291322271   5                    5                    19360                  23                            3                           4                     0.0038077171369930792  7.7452552203163556e-05  0.99999274761935486        2.9177909456877237e-13              6.2913506508999e-12       
                -7.6219617050396215e-19                28                               17.894457766519238       -9.7197990367078169e-15     -4.2798234488873286e-27           0                                     0                                            0                                              0                                          -8.3341556401635433e-20            -6.7885461410232668e-19  19360.001291322271   5                    5                    19360                  24                            4                           4                     0.003937687960594227  8.4012225379133929e-05  0.99999224374765561        3.6472386821096546e-13              6.6560745191108659e-12       
                -7.5658580761968993e-19                29                               20.867102031279472       -1.3217352688215077e-14      0                             0                                     0                                            0                                              0                                          -8.3341556401635433e-20            -6.7324425121805447e-19  19200.001302083292   5                    5                    19200                  25                            0                           5                     0.003937687960594227  8.4012225379133929e-05  0.99999224374765561        0                                6.6560745191108659e-12       
                -7.5658581120717087e-19                31                               26.392374053575519       -2.1143511442035634e-14     -3.5874809237429882e-27           0                                     0                                            0                                              0                                          -8.3341839272745852e-20            -6.7324397193442498e-19  19200.001302083292   5                    5                    19200                  26                            1                           5                     0.0040477931515620442  6.3250230422942736e-05  0.99999180565143142        3.0765116915809718e-13              6.9637256882689631e-12       
                -7.5658581738907252e-19                32                               25.737584439447268       -2.0107393102161408e-14     -6.1819017175730565e-27           0                                     0                                            0                                              0                                          -8.334221349677198e-20            -6.7324360389230055e-19  19200.001302083292   5                    5                    19200                  27                            2                           5                     0.0041895057474528319  6.3754334225357202e-05  0.99999122194996115        3.0765151856148499e-13              7.2713772068304484e-12       
                -7.5658582460903895e-19                33                               22.944654760870872       -1.5980238416244485e-14     -7.2199664088839214e-27           0                                     0                                            0                                              0                                          -8.334268638802528e-20            -6.7324313822101367e-19  19200.001302083292   5                    5                    19200                  28                            3                           5                     0.0043621046360816243  7.0903743249187682e-05  0.99999048346261932        3.8456439820185626e-13              7.6559416050323042e-12       
                -7.5658583162321639e-19                34                               19.030293124368644       -1.0992871597191151e-14     -7.0141774372314112e-27           0                                     0                                            0                                              0                                          -8.3343235319682291e-20            -6.7324259630353415e-19  19200.001302083292   5                    5                    19200                  29                            4                           5                     0.0045543163443178564  8.1458825682952882e-05  0.99998962572973493        4.8070549775232026e-13              8.1366471027846248e-12       
                -7.5097548342708867e-19                35                               22.547731989753228       -1.5432131935748303e-14      0                             0                                     0                                            0                                              0                                          -8.3343235319682291e-20            -6.6763224810740643e-19  19040.001313025165   5                    5                    19040                  30                            0                           6                     0.0045543163443178564  8.1458825682952882e-05  0.99998962572973493        0                                8.1366471027846248e-12       
                -7.5097548748005252e-19                37                               29.199297329894261       -2.5880043411834697e-14     -4.052963825088228e-27           0                                     0                                            0                                              0                                          -8.3343578240032778e-20            -6.6763190924001971e-19  19040.001313025165   5                    5                    19040                  31                            1                           6                     0.0046699019971769683  5.6583997010496714e-05  0.99998909434732719        3.004409360952002e-13              8.4370880388798245e-12       
                -7.5097549429123474e-19                38                               29.190570769823335       -2.5864576600913617e-14     -6.8111821776983575e-27           0                                     0                                            0                                              0                                          -8.3344001336888667e-20            -6.6763149295434607e-19  19040.001313025165   5                    5                    19040                  32                            2                           6                     0.0048091127459971694  5.5232421587958651e-05  0.999988434625109          2.7317965273738016e-13              8.7102676916172056e-12       
                -7.5097550270739452e-19                39                               27.28471088439457        -2.2597422838220336e-14     -8.4161597985803394e-27           0                                     0                                            0                                              0                                          -8.334454711302703e-20            -6.6763095559436743e-19  19040.001313025165   5                    5                    19040                  33                            3                           6                     0.0049830214760334338  5.9830169440387998e-05  0.99998758288156753        3.4147456592172521e-13              9.0517422575389302e-12       
                -7.5097551175694451e-19                40                               24.098754736452971       -1.7628258201844039e-14     -9.049550034542337e-27           0                                     0                                            0                                              0                                          -8.3345208843601208e-20            -6.6763030291334334e-19  19040.001313025165   5                    5                    19040                  34                            4                           6                     0.0051861071693656349  6.8331184208725673e-05  0.9999865497211835         4.2684320740215653e-13              9.4785854649410872e-12       
# Table End
