# ODT 1.0
# Table Start
# Title: mmArchive Data Table, Thu Dec 15 01:43:46 EST 2011
# Columns: {Oxs_EulerEvolve::Total energy} {Oxs_EulerEvolve::Energy calc count} {Oxs_EulerEvolve::Max dm/dt} Oxs_EulerEvolve::dE/dt {Oxs_EulerEvolve::Delta E} Oxs_Exchange6Ngbr:ErFeDyFe:Energy {Oxs_Exchange6Ngbr:ErFeDyFe:Max Spin Ang} {Oxs_Exchange6Ngbr:ErFeDyFe:Stage Max Spin Ang} {Oxs_Exchange6Ngbr:ErFeDyFe:Run Max Spin Ang} Southampton_CubicAnisotropy8:cubic:Energy Oxs_UZeeman::Energy  Oxs_UZeeman::B       Oxs_UZeeman::Bx      Oxs_UZeeman::By      Oxs_UZeeman::Bz      Oxs_TimeDriver::Iteration {Oxs_TimeDriver::Stage iteration} Oxs_TimeDriver::Stage Oxs_TimeDriver::mx   Oxs_TimeDriver::my   Oxs_TimeDriver::mz   {Oxs_TimeDriver::Last time step} {Oxs_TimeDriver::Simulation time}
# Units:                  J                                 {}                             deg/ns                     J/s                       J                              J                                    deg                                          deg                                            deg                                          J                              J                 mT                   mT                   mT                   mT                        {}                            {}                          {}                   {}                   {}                   {}                          s                                 s                
                -7.8463738750000024e-19                1                                63.757533334107187       -1.2339092299475945e-13      0                             0                                     0                                            0                                              0                                          -8.3336587499999981e-20            -7.013008000000003e-19  20000.001249999961   5                    5                    20000                  0                             0                           0                     0                    0                    1                          0                                0                         
                -7.8463740397975339e-19                2                                76.995439205950035       -1.7994931631186868e-13     -1.6479753106832523e-26           0                                     0                                            0                                              0                                          -8.3336595308023394e-20            -7.0130080867173002e-19  20000.001249999961   5                    5                    20000                  1                             1                           0                     0.00016557646857472792 -5.5192156191576013e-05  0.99999998476912999        1.5684421082599326e-13              1.5684421082599326e-13       
                -7.8463743350653762e-19                3                                83.712969516025197       -2.1271871220362619e-13     -2.9526784271001819e-26           0                                     0                                            0                                              0                                          -8.3336636758932667e-20            -7.0130079674760498e-19  20000.001249999961   5                    5                    20000                  2                             2                           0                     0.00040089702118926523 -8.3924247585190771e-05  0.99999991611914563        1.7641309635058069e-13              3.3325730717657395e-13       
                -7.7902702757714346e-19                4                                83.876376322687989       -2.1354997194614654e-13      0                             0                                     0                                            0                                              0                                          -8.3336636758932667e-20            -6.9569039081821081e-19  19840.001260080604   5                    5                    19840                  3                             0                           1                     0.00040089702118926523 -8.3924247585190771e-05  0.99999991611914563        0                                3.3325730717657395e-13       
                -7.7902707178465773e-19                5                                84.501241732849138       -2.1674364935174953e-13     -4.4207514077424984e-26           0                                     0                                            0                                              0                                          -8.3336752623616848e-20            -6.9569031916104085e-19  19840.001260080604   5                    5                    19840                  4                             1                           1                     0.0007236034797418687 -9.2410654589376184e-05  0.99999973392910113        2.2051637043822588e-13              5.5377367761479978e-13       
                -7.7902712688175528e-19                6                                77.459416507915719       -1.8212461301106935e-13     -5.5097097754478494e-26           0                                     0                                            0                                              0                                          -8.3336994863351886e-20            -6.956901320184034e-19  19840.001260080604   5                    5                    19840                  5                             2                           1                     0.001129850433283333 -7.7280935161678162e-05  0.99999935873262291        2.7564546304778233e-13              8.2941914066258211e-13       
                -7.7341672407952592e-19                7                                77.98738635830432        -1.8461582747495144e-13      0                             0                                     0                                            0                                              0                                          -8.3336994863351886e-20            -6.9007972921617404e-19  19680.001270325163   5                    5                    19680                  6                             0                           2                     0.001129850433283333 -7.7280935161678162e-05  0.99999935873262291        0                                8.2941914066258211e-13       
                -7.7341678186837672e-19                8                                67.354965063721153       -1.3770808217625364e-13     -5.7788850814104143e-26           0                                     0                                            0                                              0                                          -8.3337405491618364e-20            -6.9007937637675838e-19  19680.001270325163   5                    5                    19680                  7                             1                           2                     0.0015980940829353953 -5.0860066003831047e-05  0.99999872175346083        3.4455682880972792e-13              1.1739759694723101e-12       
                -7.7341683377584404e-19                9                                51.588724381664804       -8.0784823096984068e-14     -5.1907467246055645e-26           0                                     0                                            0                                              0                                          -8.3338004965146962e-20            -6.9007882881069707e-19  19680.001270325163   5                    5                    19680                  8                             2                           2                     0.0021026519594899767 -8.7667978197597592e-06  0.99999778938649719        4.3069603601215987e-13              1.6046720054844698e-12       
                -7.6780643977828403e-19                10                               52.750755643723743       -8.4465152401243062e-14      0                             0                                     0                                            0                                              0                                          -8.3338004965146962e-20            -6.8446843481313706e-19  19520.001280737662   4.9999999999999991   4.9999999999999991   19520                  9                             0                           3                     0.0021026519594899767 -8.7667978197597592e-06  0.99999778938649719        0                                1.6046720054844698e-12       
                -7.678064796878864e-19                11                               44.420451416171467       -5.9894388459100755e-14     -3.9909602403640755e-26           0                                     0                                            0                                              0                                          -8.3338751358155338e-20            -6.8446772832973107e-19  19520.001280737662   4.9999999999999991   4.9999999999999991   19520                  10                            1                           3                     0.0025979245107954972  1.0880244501426422e-05  0.99999662532923439        5.3837004501519989e-13              2.1430420504996697e-12       
                -7.6780651267062259e-19                12                               27.298074851294064       -2.2619564554823727e-14     -3.2982736080884937e-26           0                                     0                                            0                                              0                                          -8.3339702429725285e-20            -6.8446681024089729e-19  19520.001280737662   4.9999999999999991   4.9999999999999991   19520                  11                            2                           3                     0.0031175206270891314  5.8067166115383572e-05  0.99999513883485636        6.7296255626899986e-13              2.8160046067686695e-12       
                -7.6219613354373448e-19                13                               29.381098483780324       -2.620331619091432e-14      0                             0                                     0                                            0                                              0                                          -8.3339702429725285e-20            -6.7885643111400918e-19  19360.001291322271   5                    5                    19360                  12                            0                           4                     0.0031175206270891314  5.8067166115383572e-05  0.99999513883485636        0                                2.8160046067686695e-12       
                -7.6219614706569411e-19                14                               34.527514370531613       -3.6186854066002736e-14     -1.3521959781646718e-26           0                                     0                                            0                                              0                                          -8.3340339244303187e-20            -6.7885580782139097e-19  19360.001291322271   5                    5                    19360                  13                            1                           4                     0.0034209977586385425  3.7297142151249029e-05  0.99999414767450467        5.9319522922948101e-13              3.4091998359981506e-12       
                -7.6219616288449824e-19                16                               22.878686034707112       -1.5888480182263956e-14     -1.5818804055452351e-26           0                                     0                                            0                                              0                                          -8.3341031335828016e-20            -6.7885513154867021e-19  19360.001291322271   5                    5                    19360                  14                            2                           4                     0.0037236492622257076  7.0693675295051563e-05  0.99999306469523985        5.0527872012713224e-13              3.9144785561252826e-12       
                -7.5658579539437651e-19                17                               25.564754716115711       -1.9838254618175443e-14      0                             0                                     0                                            0                                              0                                          -8.3341031335828016e-20            -6.7324476405854848e-19  19200.001302083288   5                    5                    19200                  15                            0                           5                     0.0037236492622257076  7.0693675295051563e-05  0.99999306469523985        0                                3.9144785561252826e-12       
                -7.5658580278182344e-19                19                               32.344813411799279       -3.1756271035434715e-14     -7.3874469101428994e-27           0                                     0                                            0                                              0                                          -8.3341488608086289e-20            -6.7324431417373716e-19  19200.001302083288   5                    5                    19200                  16                            1                           5                     0.0039101034946791829  4.5451800623540361e-05  0.99999235448317036        4.2169654559933112e-13              4.3361751017246136e-12       
                -7.5658581515316357e-19                20                               27.504270997330082       -2.2962569113838159e-14     -1.237134009599687e-26           0                                     0                                            0                                              0                                          -8.3342102230402011e-20            -6.7324371292276152e-19  19200.001302083288   5                    5                    19200                  17                            2                           5                     0.0041478012465270527  5.8506535727307444e-05  0.99999139612388943        4.2169708360125008e-13              4.7578721853258639e-12       
                -7.5097545702440519e-19                21                               30.445364048600474       -2.8136012130860392e-14      0                             0                                     0                                            0                                              0                                          -8.3342102230402011e-20            -6.6763335479400314e-19  19040.001313025165   5                    5                    19040                  18                            0                           6                     0.0041478012465270527  5.8506535727307444e-05  0.99999139612388943        0                                4.7578721853258639e-12       
                -7.5097547004409808e-19                22                               39.935742749294931       -4.8410964120495129e-14     -1.3019693046808241e-26           0                                     0                                            0                                              0                                          -8.334286713418996e-20            -6.6763260290990813e-19  19040.001313025165   5                    5                    19040                  19                            1                           6                     0.0044257493149083386  2.3893967401097051e-05  0.99999020603807875        5.2712135450156259e-13              5.2849935398274262e-12       
                -7.5097549057955279e-19                23                               31.186244728498583       -2.9522040034665516e-14     -2.0535454601049433e-26           0                                     0                                            0                                              0                                          -8.3343808619091609e-20            -6.6763168196046123e-19  19040.001313025165   5                    5                    19040                  20                            2                           6                     0.0047461366196861416  4.9311631080649661e-05  0.99998873581433412        4.6110852202556676e-13              5.7461020618529932e-12       
# Table End
