# ODT 1.0
# Table Start
# Title: mmArchive Data Table, Thu Jun 12 20:41:33 EDT 2014
# Columns: {Tuw_CvodeEvolve:evolver:Total energy} {Tuw_CvodeEvolve:evolver:Energy calc count} {Tuw_CvodeEvolve:evolver:Max dm/dt} {Tuw_CvodeEvolve:evolver:CVODE reset count} {Tuw_CvodeEvolve:evolver:Delta E} {Tuw_CvodeEvolve:evolver:Successful calls to CVode} Oxs_UniaxialAnisotropy::Energy Oxs_UniformExchange::Energy {Oxs_UniformExchange::Max Spin Ang} {Oxs_UniformExchange::Stage Max Spin Ang} {Oxs_UniformExchange::Run Max Spin Ang} Oxs_FixedZeeman::Energy Oxs_ScriptUZeeman::Energy Oxs_ScriptUZeeman::B Oxs_ScriptUZeeman::Bx Oxs_ScriptUZeeman::By Oxs_ScriptUZeeman::Bz Oxs_Demag::Energy    Oxs_TimeDriver::Iteration {Oxs_TimeDriver::Stage iteration} Oxs_TimeDriver::Stage Oxs_TimeDriver::mx   Oxs_TimeDriver::my   Oxs_TimeDriver::mz   {Oxs_TimeDriver::Last time step} {Oxs_TimeDriver::Simulation time}
# Units:                     J                                        {}                                    deg/ns                                    {}                                      J                                       counts                                      J                             J                              deg                                    deg                                      deg                              J                        J                      mT                   mT                    mT                    mT                   J                       {}                            {}                          {}                   {}                   {}                   {}                          s                                 s                
                     2.4825473705386758e-16                      1                                       6729.4089937895542                      0                                      2.4825473705386758e-16                        0                                         1.0517299200000005e-16          9.0241240334234513e-18             15.947585088932255                     15.947585088932255                       15.947585088932255             -4.4732787776834764e-18      0                       0                    0                     0                     0                     1.3853089979812755e-16    0                             0                           0                    -1.082356872802908e-16  1.0807477379332977e-16  0.67011027318593974        0                                0                         
                     2.4825473705386013e-16                      7                                       6729.4089938178713                      1                                     -7.4448747930232989e-30                        1                                         1.0517299200000212e-16          9.0241240334220939e-18             15.947585088974121                     15.947585088974121                       15.947585088974121             -4.4732787776834386e-18      9.0010976424806103e-48     1.2396301688405094e-13  1.2396301688405094e-13   0                     0                     1.3853089979811937e-16    1                             1                           0                    -1.0876286812623216e-16  1.0876145117852044e-16  0.67011027318593397        1.9729326897680787e-23              1.9729326897680787e-23       
                     2.4825473697959608e-16                      9                                       6729.4092770140323                      1                                     -7.426405587079812e-26                        2                                         1.0517299202077869e-16          9.0241240198467591e-18             15.947585507635772                     15.947585507635772                       15.947585507635772             -4.4732787773032123e-18      9.0020051818260195e-44     1.2397541318573933e-09  1.2397541318573933e-09   0                     0                     1.3853089971627386e-16    2                             2                           0                    -1.0873554283459167e-16  1.0874055937447102e-16  0.67011027312897509        1.9729326897680787e-19              1.9731299830370555e-19       
                     2.4825473623695325e-16                      11                                      6729.4121089692417                      1                                     -7.4264282668308371e-25                        3                                         1.0517299222854655e-16          9.0241238840915981e-18             15.947589694239344                     15.947589694239344                       15.947589694239344             -4.4732787735008989e-18      9.8841490361801806e-43     1.3636055820262487e-08  1.3636055820262487e-08   0                     0                     1.3853089889781603e-16    3                             3                           0                    -1.0856275151094728e-16  1.05692824742154e-16  0.67011027255937738        1.9729326897680786e-18              2.1702456880717841e-18       
                     2.4825472881029316e-16                      13                                      6729.4404278771071                      1                                     -7.4266600933293589e-24                        4                                         1.0517299430644395e-16          9.0241225263598474e-18             15.94763155898108                      15.94763155898108                        15.94763155898108              -4.4732787354721063e-18      8.3092961990643529e-42     1.3759907270431299e-07  1.3759907270431299e-07   0                     0                     1.3853089071296148e-16    4                             4                           0                    -9.0448742655169347e-17 -2.1353007450060971e-16  0.67011026686255271        1.9729326897680786e-17              2.1899572585752572e-17       
                     2.4825472881029316e-16                      14                                      6729.4404278771071                      1                                      2.4825472881029316e-16                        4                                         1.0517299430644395e-16          9.0241225263598474e-18             15.94763155898108                      15.94763155898108                        15.94763155898108              -4.4732787354721063e-18      8.3092961990643529e-42     1.3759907270431299e-07  1.3759907270431299e-07   0                     0                     1.3853089071296148e-16    5                             0                           1                    -9.0448742655169347e-17 -2.1353007450060971e-16  0.67011026686255271        0                                2.1899572585752572e-17       
                     2.4825472880998595e-16                      20                                      6729.4404290485718                      2                                     -3.0721201877700778e-28                        5                                         1.051729943065299e-16          9.0241225263036904e-18             15.9476315607129                       15.9476315607129                         15.9476315607129               -4.4732787354705332e-18      8.3269862237209222e-42     1.3760420064346356e-07  1.3760420064346356e-07   0                     0                     1.3853089071262289e-16    6                             1                           1                    -9.0631539809577987e-17 -2.1379443334522404e-16  0.67011026686231712        8.1613686368690814e-22              2.1900388722616259e-17       
                     2.4825472573788647e-16                      22                                      6729.452143590197                       2                                     -3.0720994801713158e-24                        6                                         1.0517299516611681e-16          9.0241219646908767e-18             15.947648878681717                     15.947648878681717                       15.947648878681717             -4.4732787197377556e-18      1.0171359114689974e-41     1.8888359214914269e-07  1.8888359214914269e-07   0                     0                     1.3853088732681653e-16    7                             2                           1                    -8.0618090226484483e-17 -3.9521890330874404e-16  0.67011026450550093        8.161368636873488e-18              3.0061757359489747e-17       
                     2.4825469501588084e-16                      24                                      6729.5692825792667                      2                                     -3.0722005628355586e-23                        7                                         1.0517300376435788e-16          9.0241163475620101e-18             15.947822045730991                     15.947822045730991                       15.947822045730991             -4.4732785623366288e-18     -9.5837560781525879e-41     7.0167750720588409e-07  7.0167750720588409e-07   0                     0                     1.3853085346629759e-16    8                             3                           1                     2.045989876761019e-16 -5.4890108018749799e-15  0.67011024092635074        8.1613686368734892e-17              1.1167544372822463e-16       
                     2.4825445610082396e-16                      27                                      6730.4798429217508                      2                                     -2.3891505687408862e-22                        8                                         1.0517307075125496e-16          9.0240726382746117e-18             15.949167978243858                     15.949167978243858                       15.949167978243858             -4.4732773341780189e-18     -3.8843426474483379e-38     4.6892287985368889e-06  4.6892287985368889e-06   0                     0                     1.3853059004547243e-16    9                             4                           1                     1.2409006280719097e-14 -2.2321802634596491e-13  0.67011005694459091        6.346384988505258e-16              7.4631394257875048e-16       
                     2.4825445610082396e-16                      28                                      6730.4798429217508                      2                                      2.4825445610082396e-16                        8                                         1.0517307075125496e-16          9.0240726382746117e-18             15.949167978243858                     15.949167978243858                       15.949167978243858             -4.4732773341780189e-18     -3.8843426474483379e-38     4.6892287985368889e-06  4.6892287985368889e-06   0                     0                     1.3853059004547243e-16    10                            0                           2                     1.2409006280719097e-14 -2.2321802634596491e-13  0.67011005694459091        0                                7.4631394257875048e-16       
                     2.4825445609086578e-16                      34                                      6730.47988087051                        3                                     -9.9581856370574425e-27                        9                                         1.0517307075405115e-16          9.0240726364527852e-18             15.949168034333425                     15.949168034333425                       15.949168034333425             -4.4732773341266821e-18     -3.8848174336423973e-38     4.689395024715178e-06  4.689395024715178e-06   0                     0                     1.3853059003448853e-16    11                            1                           2                     1.2410048020676748e-14 -2.2323269889129277e-13  0.67011005693690051        2.6455717946125713e-20              7.463403982966966e-16       
                     2.4825435646267384e-16                      37                                      6730.8592499430761                      3                                     -9.9628191940083425e-23                        10                                        1.0517309875568419e-16          9.0240543827762504e-18             15.94972869122639                      15.94972869122639                        15.94972869122639              -4.4732768197667037e-18     -9.9592389631407979e-38     6.351656807592537e-06  6.351656807592537e-06   0                     0                     1.3853048014398007e-16    12                            2                           2                     2.3488692994467177e-14 -4.2086409540345435e-13  0.67010997988426813        2.645571794617403e-16              1.0108975777584369e-15       
                     2.4825335911502618e-16                      41                                      6734.6461820813929                      3                                     -9.9734764765612539e-22                        11                                        1.0517338126588393e-16          9.023870791940103e-18             15.955321970080975                     15.955321970080975                       15.955321970080975             -4.4732715990651239e-18     -5.0261530914787687e-36     2.2974274634643007e-05  2.2974274634643007e-05   0                     0                     1.3852937865626724e-16    13                            3                           2                     3.2772854406165744e-13 -5.8470135573033806e-12  0.67010919780786815        2.645571794617403e-15              3.6564693723758401e-15       
                     2.4825236285060559e-16                      44                                      6738.4254960281232                      3                                     -9.962644205924118e-22                        12                                        1.0517366690869071e-16          9.0236874120949659e-18             15.960900770035563                     15.960900770035563                       15.960900770035563             -4.473266262112221e-18     -2.3534097150521699e-35     3.9596892455345422e-05  3.9596892455345422e-05   0                     0                     1.3852827479193214e-16    14                            4                           2                     8.9034171357692716e-13 -1.586993202423197e-11  0.67010839831667945        2.645571794617403e-15              6.3020411669932432e-15       
                     2.4825236285060559e-16                      45                                      6738.4254960281232                      3                                      2.4825236285060559e-16                        12                                        1.0517366690869071e-16          9.0236874120949659e-18             15.960900770035563                     15.960900770035563                       15.960900770035563             -4.473266262112221e-18     -2.3534097150521699e-35     3.9596892455345422e-05  3.9596892455345422e-05   0                     0                     1.3852827479193214e-16    15                            0                           3                     8.9034171357692716e-13 -1.586993202423197e-11  0.67010839831667945        0                                6.3020411669932432e-15       
                     2.4825236280425932e-16                      51                                      6738.4256717606277                      4                                     -4.6346268435026512e-26                        13                                        1.0517366692205893e-16          9.0236874035644459e-18             15.960901029366404                     15.960901029366404                       15.960901029366404             -4.4732662618611052e-18     -2.3535423694967821e-35     3.9597666162103033e-05  3.9597666162103033e-05   0                     0                     1.3852827474049708e-16    16                            1                           3                     8.903745754282572e-13 -1.5870505605038981e-11  0.67010839827906155        1.2313925507462072e-19              6.3021643062483178e-15       
                     2.4825189833612821e-16                      55                                      6740.1804211440522                      4                                     -4.6446813110923051e-22                        14                                        1.0517380146443253e-16          9.0236013308697029e-18             15.963489157152786                     15.963489157152786                       15.963489157152786             -4.4732637292175622e-18     -4.030202179514079e-35     4.7334733736981124e-05  4.7334733736981124e-05   0                     0                     1.3852775927004355e-16    17                            2                           3                     1.2754610664094778e-12 -2.2726090003036748e-11  0.67010801888163496        1.2313925507441838e-15              7.5335568569925016e-15       
                     2.4825013606800887e-16                      63                                      6746.8148666743837                      4                                     -1.7622681193443987e-21                        15                                        1.0517431925634517e-16          9.023273182984884e-18             15.973265286949566                     15.973265286949566                       15.973265286949566             -4.4732538719512674e-18     -1.7101604334720447e-34     7.6674676424711048e-05  7.6674676424711048e-05   0                     0                     1.385257975006301e-16    18                            3                           3                     3.3412211504544429e-12 -5.9477244639657588e-11  0.67010654223424992        4.6695969179289393e-15              1.2203153774921441e-14       
                     2.4824837717521087e-16                      66                                      6753.4254577057245                      4                                     -1.7588927980025166e-21                        16                                        1.0517484679828381e-16          9.0229457003063963e-18             15.982996233877982                     15.982996233877982                       15.982996233877982             -4.4732436526395667e-18     -4.3991800745923752e-34     0.00010601461904643691  0.00010601461904643691   0                     0                     1.3852382832926023e-16    19                            4                           3                     6.216218812947008e-12 -1.1054586186968926e-10  0.67010501135140188        4.6695969179289409e-15              1.6872750692850382e-14       
                     2.4824837717521087e-16                      67                                      6753.4254577057245                      4                                      2.4824837717521087e-16                        16                                        1.0517484679828381e-16          9.0229457003063963e-18             15.982996233877982                     15.982996233877982                       15.982996233877982             -4.4732436526395667e-18     -4.3991800745923752e-34     0.00010601461904643691  0.00010601461904643691   0                     0                     1.3852382832926023e-16    20                            0                           4                     6.216218812947008e-12 -1.1054586186968926e-10  0.67010501135140188        0                                1.6872750692850382e-14       
                     2.4824837708682092e-16                      73                                      6753.4257896308491                      5                                     -8.8389941581557897e-26                        17                                        1.0517484682506499e-16          9.0229456838506438e-18             15.982996722227485                     15.982996722227485                       15.982996722227485             -4.4732436521164164e-18     -4.3993580522911994e-34     0.00010601609489816868  0.00010601609489816868   0                     0                     1.385238282300217e-16    21                            1                           4                     6.2163837758525376e-12 -1.1054878995664643e-10  0.67010501127303246        2.3488909970175646e-19              1.6872985581950084e-14       
                     2.4824758638567666e-16                      77                                      6756.3766515403449                      5                                     -7.9070114426210089e-22                        18                                        1.0517508800324754e-16          9.022796800616763e-18             15.987334223741119                     15.987334223741119                       15.987334223741119             -4.4732389273297463e-18     -6.260944504053207e-34     0.00011916991074627519  0.00011916991074627519   0                     0                     1.3852294050914209e-16    22                            2                           4                     7.8703410627748844e-12 -1.3989186362973021e-10  0.6701043034861397         2.0934948260315665e-15              1.896648040798165e-14       
                     2.4824503962554754e-16                      85                                      6765.8381720916523                      5                                     -2.5467601291170094e-21                        19                                        1.0517588034195219e-16          9.0223146375310148e-18             16.001223261939408                     16.001223261939408                       16.001223261939408             -4.4732231774462647e-18     -1.5599902052381175e-33     0.00016152717055367585  0.00016152717055367585   0                     0                     1.3852006782351059e-16    23                            3                           4                     1.4467603457461989e-11 -2.5680715856518257e-10  0.67010194410742729        6.741367341074187e-15              2.5707847749055837e-14       
                     2.4824249989559496e-16                      89                                      6775.2496062110004                      5                                     -2.539729952585404e-21                        20                                        1.0517669297104547e-16          9.0218338852102778e-18             16.015017907223623                     16.015017907223623                       16.015017907223623             -4.4732066733788081e-18     -3.0983640968134627e-33     0.00020388443007127445  0.00020388443007127445   0                     0                     1.3851717971271805e-16    24                            4                           4                     2.2765054872730981e-11 -4.0355369762284185e-10  0.67009947174974482        6.7413673410741838e-15              3.2449215090130021e-14       
                     2.4824249989559496e-16                      90                                      6775.2496062110004                      5                                      2.4824249989559496e-16                        20                                        1.0517669297104547e-16          9.0218338852102778e-18             16.015017907223623                     16.015017907223623                       16.015017907223623             -4.4732066733788081e-18     -3.0983640968134627e-33     0.00020388443007127445  0.00020388443007127445   0                     0                     1.3851717971271805e-16    25                            0                           5                     2.2765054872730981e-11 -4.0355369762284185e-10  0.67009947174974482        0                                3.2449215090130021e-14       
                     2.4824249976042897e-16                      96                                      6775.2501064632197                      6                                     -1.3516599129851013e-25                        21                                        1.0517669301489417e-16          9.0218338596278206e-18             16.015018639904227                     16.015018639904227                       16.015018639904227             -4.4732066724791423e-18     -3.0984647536039653e-33     0.00020388668751193938  0.00020388668751193938   0                     0                     1.3851717955838612e-16    26                            1                           5                     2.2765542379357082e-11 -4.0356231227118924e-10  0.67009947161497219        3.5928284802610521e-19              3.2449574372978047e-14       
                     2.4824149768482665e-16                      100                                     6778.9294439470323                      6                                     -1.0020756023160458e-21                        22                                        1.051770205646732e-16          9.0216415289616803e-18             16.020401056202012                     16.020401056202012                       16.020401056202012             -4.4731999341248145e-18     -3.9250366952403392e-33     0.00022054467312278462  0.00022054467312278462   0                     0                     1.3851603552531658e-16    27                            2                           5                     2.6660449041308659e-11 -4.7233021620303906e-10  0.67009846218974212        2.6512008116494104e-15              3.5100775184627457e-14       
                     2.4823829745855135e-16                      108                                     6790.611991237497                       6                                     -3.2002262752998455e-21                        23                                        1.0517809108716291e-16          9.0210232318427329e-18             16.037461920442933                     16.037461920442933                       16.037461920442933             -4.4731775756208439e-18     -7.5137410843860732e-33     0.00027372938659085797  0.00027372938659085797   0                     0                     1.3851236071516656e-16    28                            3                           5                     4.1120190001460687e-11 -7.2726398272196548e-10  0.67009511282030898        8.4646103048628881e-15              4.3565385489490345e-14       
                     2.4823510829435227e-16                      112                                     6802.2148481588838                      6                                     -3.1891641990779154e-21                        24                                        1.0517919353444776e-16          9.0204072108053721e-18             16.054373544879819                     16.054373544879819                       16.054373544879819             -4.4731540288218562e-18     -1.2720155848074113e-32     0.00032691409928465654  0.00032691409928465654   0                     0                     1.3850866157792102e-16    29                            4                           5                     5.8287991745775297e-11 -1.0292152145953234e-09  0.67009158544079916        8.4646103048628881e-15              5.2029995794353234e-14       
                     2.4823510829435227e-16                      113                                     6802.2148481588838                      6                                      2.4823510829435227e-16                        24                                        1.0517919353444776e-16          9.0204072108053721e-18             16.054373544879819                     16.054373544879819                       16.054373544879819             -4.4731540288218562e-18     -1.2720155848074113e-32     0.00032691409928465654  0.00032691409928465654   0                     0                     1.3850866157792102e-16    30                            0                           6                     5.8287991745775297e-11 -1.0292152145953234e-09  0.67009158544079916        0                                5.2029995794353234e-14       
                     2.4823510811569589e-16                      119                                     6802.2154970653019                      7                                     -1.7865638604141027e-25                        25                                        1.051791935972086e-16          9.0204071763029657e-18             16.05437448976636                      16.05437448976636                        16.05437448976636              -4.4731540274671425e-18     -1.2720498825808463e-32     0.00032691708394074257  0.00032691708394074257   0                     0                     1.3850866136965149e-16    31                            1                           6                     5.8289031157731455e-11 -1.0292334753454532e-09  0.67009158523785906        4.7502279490230654e-19              5.2030470817148136e-14       
                     2.4823390298028754e-16                      123                                     6806.5506061793303                      7                                     -1.2051354083490772e-21                        26                                        1.0517962033354449e-16          9.0201706152275401e-18             16.060677625347882                     16.060677625347882                       16.060677625347882             -4.4731447964954862e-18     -1.5214976310199447e-32     0.00034693761167497913  0.00034693761167497913   0                     0                     1.3850725682801099e-16    32                            2                           6                     6.5696193623613412e-11 -1.1592412713123519e-09  0.67009020241124673        3.1863661331235481e-15              5.5216836950271684e-14       