# ODT 1.0
# Table Start
# Title: mmArchive Data Table, Tue May 14 03:41:36 EDT 2019
# Columns: {Oxs_CGEvolve:evolve:Max mxHxm} {Oxs_CGEvolve:evolve:Total energy} {Oxs_CGEvolve:evolve:Delta E} {Oxs_CGEvolve:evolve:Bracket count} {Oxs_CGEvolve:evolve:Line min count} {Oxs_CGEvolve:evolve:Conjugate cycle count} {Oxs_CGEvolve:evolve:Cycle count} {Oxs_CGEvolve:evolve:Cycle sub count} {Oxs_CGEvolve:evolve:Energy calc count} Oxs_Demag::Energy    Oxs_Demag4Local::Energy Oxs_MinDriver::Iteration {Oxs_MinDriver::Stage iteration} Oxs_MinDriver::Stage Oxs_MinDriver::mx    Oxs_MinDriver::my    Oxs_MinDriver::mz   
# Units:                 A/m                               J                                J                               {}                                   {}                                      {}                                     {}                                  {}                                     {}                            J                       J                       {}                           {}                         {}                 {}                   {}                   {}           
                 242069.91607695955                9.6009188680971317e-19             9.6009188680971317e-19              0                                    0                                       1                                      1                                   0                                      1                              9.7638555381416215e-19  -1.6293667004449128e-20      0                            0                          0                    4.4348694029308502e-17 -7.816457322665624e-17  0.31941274582850276
# Table End
