# ODT 1.0
# Table Start
# Title: mmArchive Data Table, Tue May 14 03:41:37 EDT 2019
# Columns: {Oxs_CGEvolve:evolve:Max mxHxm} {Oxs_CGEvolve:evolve:Total energy} {Oxs_CGEvolve:evolve:Delta E} {Oxs_CGEvolve:evolve:Bracket count} {Oxs_CGEvolve:evolve:Line min count} {Oxs_CGEvolve:evolve:Conjugate cycle count} {Oxs_CGEvolve:evolve:Cycle count} {Oxs_CGEvolve:evolve:Cycle sub count} {Oxs_CGEvolve:evolve:Energy calc count} Oxs_Demag::Energy    Oxs_Demag4Local::Energy Oxs_MinDriver::Iteration {Oxs_MinDriver::Stage iteration} Oxs_MinDriver::Stage Oxs_MinDriver::mx    Oxs_MinDriver::my    Oxs_MinDriver::mz   
# Units:                 A/m                               J                                J                               {}                                   {}                                      {}                                     {}                                  {}                                     {}                            J                       J                       {}                           {}                         {}                 {}                   {}                   {}           
                 420597.59694619419                3.2582758560598934e-17             3.2582758560598934e-17              0                                    0                                       1                                      1                                   0                                      1                              3.2609190862515128e-17  -2.6432301916194363e-20      0                            0                          0                   -5.3895982327284635e-18  3.8737737297735835e-18 -0.97071602906800247
# Table End
