# ODT 1.0
# Table Start
# Title: mmArchive Data Table, Thu Dec 15 01:52:03 EST 2011
# Columns: {Anv_SpinTEvolve::Total energy} {Anv_SpinTEvolve::Energy calc count} {Anv_SpinTEvolve::Max dm/dt} Anv_SpinTEvolve::dE/dt {Anv_SpinTEvolve::Delta E} {Anv_SpinTEvolve::average u} Oxs_UniaxialAnisotropy::Energy Oxs_UniformExchange::Energy {Oxs_UniformExchange::Max Spin Ang} {Oxs_UniformExchange::Stage Max Spin Ang} {Oxs_UniformExchange::Run Max Spin Ang} Oxs_FixedZeeman:leftadj:Energy Oxs_FixedZeeman:rightadj:Energy Oxs_Demag::Energy    Oxs_UZeeman:extfield0:Energy Oxs_UZeeman:extfield0:B Oxs_UZeeman:extfield0:Bx Oxs_UZeeman:extfield0:By Oxs_UZeeman:extfield0:Bz Oxs_TimeDriver::Iteration {Oxs_TimeDriver::Stage iteration} Oxs_TimeDriver::Stage Oxs_TimeDriver::mx   Oxs_TimeDriver::my   Oxs_TimeDriver::mz   {Oxs_TimeDriver::Last time step} {Oxs_TimeDriver::Simulation time}
# Units:                  J                                 {}                             deg/ns                     J/s                       J                          m/s                            J                             J                              deg                                    deg                                      deg                                 J                               J                        J                         J                         mT                       mT                       mT                       mT                       {}                            {}                          {}                   {}                   {}                   {}                          s                                 s                
                 1.60677817230231e-18                1                                360.83440193654201        1.41735849736478e-16      0                           100                           0                            1.10268554941993e-18             14.8569710673827                       14.8569710673827                         14.8569710673827                   -5.1162239628197603e-18           -5.4867094762344099e-18        1.11070260619366e-17      0                         0                        0                        0                        0                        0                             0                           0                    -0.79999997167897297  0.0205406912940585   7.3118473393987605e-11        0                                0                         
                 1.60677817251211e-18                7                                360.858025064684          1.5797254758944799e-14      2.0982180355878898e-28         100                           0                            1.10268554944434e-18             14.8569710506807                       14.8569710673827                         14.8569710673827                   -5.1162261314834802e-18           -5.48670944878128e-18        1.11070282033325e-17      0                         0                        0                        0                        0                        1                             1                           0                    -0.79999892046783205  0.020540690332660701  5.79361799645488e-08        2.6327866603114801e-14              2.6327866603114801e-14       
                 1.60677817747282e-18                13                               360.98689689082897        7.8409692183841304e-14      4.9606740522965797e-27         100                           0                            1.1026855496321399e-18             14.8569668327985                       14.8569710673827                         14.8569710673827                   -5.1162348088862003e-18           -5.4867093389301002e-18        1.1107036775657e-17      0                         0                        0                        0                        0                        2                             2                           0                    -0.79999471418632895  0.020540686484810299  2.8935840507398698e-07        1.05311466412459e-13              1.31639333015574e-13       
# Table End
