# ODT 1.0
# Table Start
# Title: mmArchive Data Table, Wed Jun 11 15:42:55 EDT 2014
# Columns: {Anv_SpinTEvolve::Total energy} {Anv_SpinTEvolve::Energy calc count} {Anv_SpinTEvolve::Max dm/dt} Anv_SpinTEvolve::dE/dt {Anv_SpinTEvolve::Delta E} {Anv_SpinTEvolve::average u} Oxs_UniaxialAnisotropy::Energy Oxs_UniformExchange::Energy {Oxs_UniformExchange::Max Spin Ang} {Oxs_UniformExchange::Stage Max Spin Ang} {Oxs_UniformExchange::Run Max Spin Ang} Oxs_FixedZeeman:leftadj:Energy Oxs_FixedZeeman:rightadj:Energy Oxs_Demag::Energy    Oxs_UZeeman:extfield0:Energy Oxs_UZeeman:extfield0:B Oxs_UZeeman:extfield0:Bx Oxs_UZeeman:extfield0:By Oxs_UZeeman:extfield0:Bz Oxs_TimeDriver::Iteration {Oxs_TimeDriver::Stage iteration} Oxs_TimeDriver::Stage Oxs_TimeDriver::mx   Oxs_TimeDriver::my   Oxs_TimeDriver::mz   {Oxs_TimeDriver::Last time step} {Oxs_TimeDriver::Simulation time}
# Units:                  J                                 {}                             deg/ns                     J/s                       J                          m/s                            J                             J                              deg                                    deg                                      deg                                 J                               J                        J                         J                         mT                       mT                       mT                       mT                       {}                            {}                          {}                   {}                   {}                   {}                          s                                 s                
                 1.60677816931005e-18                1                                360.83440193669998        1.4173582633935701e-16      0                           100                           0                            1.10268554941993e-18             14.8569710673827                       14.8569710673827                         14.8569710673827                   -5.1162239628197803e-18           -5.4867094762344399e-18        1.1107026058944301e-17      0                         0                        0                        0                        0                        0                             0                           0                    -0.79999997167894599  0.020540691294058201  7.3118473393986894e-11        0                                0                         
                 1.6067781695198801e-18                7                                360.85802506451301        1.5797254735673901e-14      2.0982185892104002e-28         100                           0                            1.10268554944434e-18             14.856971050680601                     14.8569710673827                         14.8569710673827                   -5.1162261314835302e-18           -5.48670944878126e-18        1.11070282003403e-17      0                         0                        0                        0                        0                        1                             1                           0                    -0.79999892046779897  0.020540690332660701  5.7936179965621402e-08        2.6327866603103299e-14              2.6327866603103299e-14       
                 1.60677817448055e-18                13                               360.98689689060802        7.8409692160360095e-14      4.9606739390528297e-27         100                           0                            1.1026855496321399e-18             14.8569668327985                       14.8569710673827                         14.8569710673827                   -5.1162348088862103e-18           -5.4867093389301503e-18        1.1107036772664799e-17      0                         0                        0                        0                        0                        2                             2                           0                    -0.79999471418629897  0.020540686484810101  2.8935840507935098e-07        1.0531146641241299e-13              1.3163933301551599e-13       
                 1.6067782602343001e-18                19                               361.58881452887999        3.2868370672741598e-13      8.5753755062064496e-26         100                           0                            1.10268555188243e-18             14.8568833259661                       14.8569710673827                         14.8569710673827                   -5.1162695623629903e-18           -5.4867088989143703e-18        1.11070711696292e-17      0                         0                        0                        0                        0                        3                             3                           0                    -0.79997786607696098  0.0205406710581226   1.21456405053942e-06        4.2124586564965198e-13              5.5288519866516903e-13       
                 1.60677965517334e-18                25                               364.93079433950197        1.3258707180173299e-12      1.39493903347281e-24         100                           0                            1.10268558967583e-18             14.8554299448635                       14.8569710673827                         14.8569710673827                   -5.1164092725890903e-18           -5.4867071290603203e-18        1.1107210467146901e-17      0                         0                        0                        0                        0                        4                             4                           0                    -0.79991010642212401  0.020540608835601801  4.9075082942679299e-06        1.6849834625986099e-12              2.2378686612637799e-12       
# Table End
