# ODT 1.0
# Table Start
# Title: mmArchive Data Table, Wed Aug 17 23:55:55 EDT 2011
# Columns: {Oxs_CGEvolve:evolve:Max mxHxm} {Oxs_CGEvolve:evolve:Total energy} {Oxs_CGEvolve:evolve:Delta E} {Oxs_CGEvolve:evolve:Bracket count} {Oxs_CGEvolve:evolve:Line min count} {Oxs_CGEvolve:evolve:Conjugate cycle count} {Oxs_CGEvolve:evolve:Cycle count} {Oxs_CGEvolve:evolve:Cycle sub count} {Oxs_CGEvolve:evolve:Energy calc count} Oxs_UniformExchange::Energy {Oxs_UniformExchange::Max Spin Ang} {Oxs_UniformExchange::Stage Max Spin Ang} {Oxs_UniformExchange::Run Max Spin Ang} Oxs_UZeeman::Energy  Oxs_UZeeman::B       Oxs_UZeeman::Bx      Oxs_UZeeman::By      Oxs_UZeeman::Bz      Oxs_Demag::Energy    Oxs_EdgeCorrAnisotropy::Energy Oxs_MinDriver::Iteration {Oxs_MinDriver::Stage iteration} Oxs_MinDriver::Stage Oxs_MinDriver::mx    Oxs_MinDriver::my    Oxs_MinDriver::mz   
# Units:                 A/m                               J                                J                               {}                                   {}                                      {}                                     {}                                  {}                                     {}                                 J                              deg                                    deg                                      deg                            J                 mT                   mT                   mT                   mT                     J                          J                           {}                           {}                         {}                 {}                   {}                   {}           
                 5220748.1598403286                5.5058212618758757e-16             5.5058212618758757e-16              0                                    0                                       1                                      1                                   1                                      1                                 5.2438361830192552e-16             179.10547911938144                     179.10547911938144                       179.10547911938144             0                    0                    0                    0                    0                    2.5496402185429649e-17       7.0210570023241523e-19         0                            0                          0                    0.15378028694341456  0.073734500011908261  0.010553803104529679
                 5220637.5022512423                5.5043916236296468e-16            -1.4296382462288619e-19              1                                    0                                       1                                      1                                   1                                      2                                 5.2424231630184748e-16             179.11963918503716                     179.11963918503716                       179.11963918503716             0                    0                    0                    0                    0                    2.5494730683278117e-17       7.0211537783911031e-19         1                            1                          0                    0.1538746912689167   0.073778279392161125  0.010563619888145659
                 5220265.5267751627                5.5001023842041371e-16            -4.2892394255097339e-19              2                                    0                                       1                                      1                                   1                                      3                                 5.2381838082145821e-16             179.1616935008451                      179.1616935008451                        179.1616935008451              0                    0                    0                    0                    0                    2.5489713137352432e-17       7.021444616031206e-19         2                            2                          0                    0.15415779117621528  0.073909554831882718  0.010593053572306565
                 5220264.9318530932                5.500103298283046e-16             9.1407890888181674e-23              2                                    0                                       2                                      2                                   2                                      4                                 5.2381838082145821e-16             179.1616935008451                      179.1616935008451                        179.1616935008451              9.1407890860160557e-23  0.01                -0.0070710678118654753  0.0070710678118654753  0                    2.5489713137352432e-17       7.021444616031206e-19         3                            0                          1                    0.15415779117621528  0.073909554831882718  0.010593053572306565
                 5220130.6994788535                5.4986730847565774e-16            -1.4302135264686367e-19              3                                    0                                       2                                      2                                   0                                      5                                 5.2367702613384033e-16             179.17562628544809                     179.17562628544809                       179.17562628544809             9.1465635843592582e-23  0.01                -0.0070710678118654753  0.0070710678118654753  0                    2.5488036690842688e-17       7.0215418533885915e-19         4                            1                          1                    0.15425232205235082  0.073953390598060151  0.010602875079950615
                 5219687.9927620692                5.4943821244948661e-16            -4.2909602617112529e-19              4                                    0                                       2                                      2                                   0                                      6                                 5.2325293309004433e-16             179.21689444127657                     179.21689444127657                       179.21689444127657             9.1638813248458958e-23  0.01                -0.0070710678118654753  0.0070710678118654753  0                    2.5483004313327873e-17       7.0218340730117774e-19         5                            2                          1                    0.15453580135587849  0.074084835091634091  0.010632322868519565
                 5219687.3849635599                5.4943830408829976e-16             9.1638813154890889e-23              4                                    0                                       3                                      3                                   1                                      7                                 5.2325293309004433e-16             179.21689444127657                     179.21689444127657                       179.21689444127657             1.8327762649691792e-22  0.02                -0.014142135623730951  0.014142135623730951  0                    2.5483004313327873e-17       7.0218340730117774e-19         6                            0                          2                    0.15453580135587849  0.074084835091634091  0.010632322868519565
                 5219529.5754423728                5.4929522328250579e-16            -1.4308080579397805e-19              5                                    0                                       3                                      3                                   0                                      8                                 5.2311152381819994e-16             179.23052335620164                     179.23052335620164                       179.23052335620164             1.8339327805555135e-22  0.02                -0.014142135623730951  0.014142135623730951  0                    2.5481322893916521e-17       7.0219317711125872e-19         7                            1                          2                    0.15463046018836457  0.0741287278823516   0.010642149158596296
                 5219016.1309837028                5.488659493980107e-16            -4.2927388449508648e-19              6                                    0                                       3                                      3                                   0                                      9                                 5.226872675216295e-16             179.2707441996786                      179.2707441996786                        179.2707441996786              1.8374011728989058e-22  0.02                -0.014142135623730951  0.014142135623730951  0                    2.547627559915613e-17       7.0222253710769477e-19         8                            2                          2                    0.15491432310132669  0.074260343343869217  0.010671611226377029
                 5219015.5103199026                5.4886604126806936e-16             9.1870058657356019e-23              6                                    0                                       4                                      4                                   1                                      10                                5.226872675216295e-16             179.2707441996786                      179.2707441996786                        179.2707441996786              2.7561017593483582e-22  0.029999999999999995 -0.021213203435596423  0.021213203435596423  0                    2.547627559915613e-17       7.0222253710769477e-19         9                            0                          3                    0.15491432310132669  0.074260343343869217  0.010671611226377029
                 5218834.1217760677                5.4872289908138719e-16            -1.4314218668216285e-19              7                                    0                                       4                                      4                                   0                                      11                                5.2254580176650012e-16             179.28396967163363                     179.28396967163363                       179.28396967163363             2.7578389829543508e-22  0.029999999999999995 -0.021213203435596423  0.021213203435596423  0                    2.5474589178050013e-17       7.0223235293882464e-19         10                           1                          3                    0.15500911130390121  0.074304293801764662  0.010681442357704176
                 5218249.9345360547                5.4829344155605481e-16            -4.2945752533238273e-19              8                                    0                                       4                                      4                                   0                                      12                                5.2212137652071501e-16             179.32280277118721                     179.32280277118721                       179.32280277118721             2.7630489168129108e-22  0.029999999999999995 -0.021213203435596423  0.021213203435596423  0                    2.5469526879638708e-17       7.0226185080938653e-19         11                           2                          3                    0.15529336206353664  0.07443608215737553  0.01071091888073032
                 5218249.3010182595                5.4829353365768536e-16             9.2101630551020683e-23              8                                    0                                       5                                      5                                   1                                      13                                5.2212137652071501e-16             179.32280277118721                     179.32280277118721                       179.32280277118721             3.6840652224172155e-22  0.040000000000000001 -0.028284271247461901  0.028284271247461901  0                    2.5469526879638708e-17       7.0226185080938653e-19         12                           0                          4                    0.15529336206353664  0.07443608215737553  0.01071091888073032
                 5218044.3320660666                5.4815032815962062e-16            -1.4320549806473984e-19              9                                    0                                       5                                      5                                   0                                      14                                5.2197985238073614e-16             179.33549478807598                     179.33549478807598                       179.33549478807598             3.6863848228452199e-22  0.040000000000000001 -0.028284271247461901  0.028284271247461901  0                    2.5467835427792618e-17       7.0227171260966868e-19         13                           1                          4                    0.15538828105806946  0.074480090929164064  0.010720754912533643
                 5217389.3984786477                5.4772068120271995e-16            -4.2964695690067668e-19              10                                   0                                       5                                      5                                   0                                      15                                5.2155525248182209e-16             179.37249535103686                     179.37249535103686                       179.37249535103686             3.6933413009673039e-22  0.040000000000000001 -0.028284271247461901  0.028284271247461901  0                    2.5462758038569233e-17       7.023013481985356e-19         14                           2                          4                    0.15567292392598925  0.074612054117241047  0.010750246068052674
                 5217388.7521183062                5.4772077353625243e-16             9.233353248436657e-23              10                                   0                                       6                                      6                                   1                                      16                                5.2155525248182209e-16             179.37249535103686                     179.37249535103686                       179.37249535103686             4.6166766262091307e-22  0.050000000000000003 -0.035355339059327376  0.035355339059327376  0                    2.5462758038569233e-17       7.023013481985356e-19         15                           0                          5                    0.15567292392598925  0.074612054117241047  0.010750246068052674
                 5217160.2018659357                5.4757750279342083e-16            -1.4327074283160234e-19              11                                   0                                       6                                      6                                   0                                      17                                5.214136680527899e-16             179.38448418085127                     179.38448418085127                       179.38448418085127             4.6195802989843086e-22  0.050000000000000003 -0.035355339059327376  0.035355339059327376  0                    2.546106152668355e-17       7.0231125591745019e-19         16                           1                          5                    0.15576797514259638  0.07465612185377056  0.010760087059960542
                 5216434.5198501572                5.4714766060559555e-16            -4.2984218782527486e-19              12                                   0                                       6                                      6                                   0                                      18                                5.2098888778895819e-16             179.41907313312643                     179.41907313312643                       179.41907313312643             4.6282884042097151e-22  0.050000000000000003 -0.035355339059327376  0.035355339059327376  0                    2.5455968958724054e-17       7.0234102907292644e-19         17                           2                          5                    0.15605301440512559  0.074788261825076252  0.010789593026417634
                 5216433.8606588654                5.4714775317136366e-16             9.2565768105875365e-23              12                                   0                                       7                                      7                                   1                                      19                                5.2098888778895819e-16             179.41907313312643                     179.41907313312643                       179.41907313312643             5.5539460850516569e-22  0.059999999999999991 -0.042426406871192847  0.042426406871192847  0                    2.5455968958724054e-17       7.0234102907292644e-19         18                           0                          6                    0.15605301440512559  0.074788261825076252  0.010789593026417634
                 5216181.7287123175                5.4700441524735494e-16            -1.4333792400872218e-19              13                                   0                                       7                                      7                                   0                                      20                                5.2084724116389601e-16             179.430138878447                       179.430138878447                         179.430138878447               5.557435552613434e-22  0.059999999999999991 -0.042426406871192847  0.042426406871192847  0                    2.5454267357242379e-17       7.0235098266132423e-19         19                           1                          6                    0.15614819928228496  0.074832389181384087  0.010799439038455495
                 5215385.2976840856                5.4657437202021423e-16            -4.3004322714070541e-19              14                                   0                                       7                                      7                                   0                                      21                                5.2042227481508082e-16             179.46157229691877                     179.46157229691877                       179.46157229691877             5.5679004484470291e-22  0.059999999999999991 -0.042426406871192847  0.042426406871192847  0                    2.5449159521852753e-17       7.0238089323580135e-19         20                           2                          6                    0.1564336392508085   0.074964707899238647  0.010828959995477181
# Table End
