# ODT 1.0
# Table Start
# Title: mmArchive Data Table, Wed Jun 11 15:43:18 EDT 2014
# Columns: {Oxs_CGEvolve:evolve:Max mxHxm} {Oxs_CGEvolve:evolve:Total energy} {Oxs_CGEvolve:evolve:Delta E} {Oxs_CGEvolve:evolve:Bracket count} {Oxs_CGEvolve:evolve:Line min count} {Oxs_CGEvolve:evolve:Conjugate cycle count} {Oxs_CGEvolve:evolve:Cycle count} {Oxs_CGEvolve:evolve:Cycle sub count} {Oxs_CGEvolve:evolve:Energy calc count} Oxs_UniformExchange::Energy {Oxs_UniformExchange::Max Spin Ang} {Oxs_UniformExchange::Stage Max Spin Ang} {Oxs_UniformExchange::Run Max Spin Ang} Oxs_UZeeman::Energy  Oxs_UZeeman::B       Oxs_UZeeman::Bx      Oxs_UZeeman::By      Oxs_UZeeman::Bz      Oxs_Demag::Energy    Oxs_EdgeCorrAnisotropy::Energy Oxs_MinDriver::Iteration {Oxs_MinDriver::Stage iteration} Oxs_MinDriver::Stage Oxs_MinDriver::mx    Oxs_MinDriver::my    Oxs_MinDriver::mz   
# Units:                 A/m                               J                                J                               {}                                   {}                                      {}                                     {}                                  {}                                     {}                                 J                              deg                                    deg                                      deg                            J                 mT                   mT                   mT                   mT                     J                          J                           {}                           {}                         {}                 {}                   {}                   {}           
                 5220748.1598405065                5.5058212618758994e-16             5.5058212618758994e-16              0                                    0                                       1                                      1                                   0                                      1                                 5.2438361830192552e-16             179.10547911938124                     179.10547911938124                       179.10547911938124             0                    0                    0                    0                    0                    2.5496402185432059e-17       7.0210570023241504e-19         0                            0                          0                    0.15378028694341464  0.073734500011908163  0.010553803104529686
                 5220637.5022514202                5.5043916236296705e-16            -1.4296382462292817e-19              1                                    0                                       1                                      1                                   0                                      2                                 5.2424231630184738e-16             179.11963918503719                     179.11963918503719                       179.11963918503719             0                    0                    0                    0                    0                    2.5494730683280521e-17       7.021153778391107e-19         1                            1                          0                    0.15387469126891637  0.07377827939216107  0.010563619888145649
                 5312898.5970559223                5.2178833705045888e-16            -2.8650825312508209e-17              2                                    0                                       1                                      1                                   0                                      3                                 4.9593318088305531e-16             177.53160180738473                     179.11963918503719                       179.11963918503719             0                    0                    0                    0                    0                    2.5150929311240661e-17       7.042268561629255e-19         2                            2                          0                    0.17239469118628889  0.082331846225273661  0.012472093767367088
                 5583557.2752417969                4.9355983267509972e-16            -2.8228504375359132e-17              3                                    0                                       2                                      2                                   0                                      4                                 4.6808347480601217e-16             178.77081046369398                     179.11963918503719                       179.11963918503719             0                    0                    0                    0                    0                    2.4769693358491833e-17       7.0666451059568025e-19         3                            3                          0                    0.19159622026014239  0.091174406419660264  0.014348802013089475
                 5540208.4503332125                4.6705306721552966e-16            -2.6506765459570005e-17              4                                    0                                       3                                      3                                   0                                      5                                 4.419716453237717e-16             178.85554418175329                     179.11963918503719                       179.11963918503719             0                    0                    0                    0                    0                    2.4372260942128927e-17       7.0916094962905954e-19         4                            4                          0                    0.21057945015682428  0.099899787665199941  0.016079997891157331
                 5540205.8887088411                4.6705319328676775e-16             1.2607123807756749e-22              4                                    0                                       4                                      4                                   0                                      6                                 4.419716453237717e-16             178.85554418175329                     178.85554418175329                       179.11963918503719             1.2607123807759897e-22  0.01                -0.0070710678118654753  0.0070710678118654753  0                    2.4372260942128927e-17       7.0916094962905954e-19         5                            0                          1                    0.21057945015682428  0.099899787665199941  0.016079997891157331
                 5201967.3440141212                4.4094326242288478e-16            -2.610993086388298e-17              5                                    0                                       4                                      4                                   0                                      7                                 4.162877808684236e-16             179.11227461866824                     179.11227461866824                       179.11963918503719             1.3816629756200181e-22  0.01                -0.0070710678118654753  0.0070710678118654753  0                    2.3943637119687241e-17       7.1170626847639079e-19         6                            1                          1                    0.23022479861619144  0.10892671814150702  0.017723748675943084
                 5024788.0220677843                4.1402426520747628e-16            -2.691899721540854e-17              6                                    0                                       5                                      5                                   0                                      8                                 3.8984639175164037e-16             177.78996603409337                     179.11227461866824                       179.11963918503719             1.5126331459704844e-22  0.01                -0.0070710678118654753  0.0070710678118654753  0                    2.3463409135554981e-17       7.1431305696632218e-19         7                            2                          1                    0.25152412326946433  0.11872799258769159  0.019314713209145917
                 5139780.4916888466                3.8729213460640302e-16            -2.6732130601073236e-17              7                                    0                                       6                                      6                                   0                                      9                                 3.6362801203842705e-16             179.07931190597429                     179.11227461866824                       179.11963918503719             1.6496326949444384e-22  0.01                -0.0070710678118654753  0.0070710678118654753  0                    2.294718217153655e-17       7.1677543316991472e-19         8                            3                          1                    0.27386467340725995  0.12904116513075872  0.020742624848331555
                 5068900.600906875                 3.623650763901342e-16            -2.4927058216268817e-17              8                                    0                                       7                                      7                                   0                                      10                                3.3921681005954879e-16             175.81152664698075                     179.11227461866824                       179.11963918503719             1.7843753414369224e-22  0.01                -0.0070710678118654753  0.0070710678118654753  0                    2.2429233936288105e-17       7.1885395676315885e-19         9                            4                          1                    0.29591194747113536  0.13925919815248855  0.021888476623646722
                 5068907.6902563451                3.6236525482766833e-16             1.7843753414369335e-22              8                                    0                                       8                                      8                                   0                                      11                                3.3921681005954879e-16             175.81152664698075                     175.81152664698075                       179.11963918503719             3.5687506828738448e-22  0.02                -0.014142135623730951  0.014142135623730951  0                    2.2429233936288105e-17       7.1885395676315885e-19         10                           0                          2                    0.29591194747113536  0.13925919815248855  0.021888476623646722
                 5254433.9645959958                3.3832781120331109e-16            -2.4037443624357266e-17              9                                    0                                       8                                      8                                   0                                      12                                3.1571106333353875e-16             176.51348398192067                     176.51348398192067                       179.11963918503719             3.8421983285096851e-22  0.02                -0.014142135623730951  0.014142135623730951  0                    2.1895803126905857e-17       7.2056052303364861e-19         11                           1                          2                    0.31834472268098035  0.14968880214358363  0.022783316997523593
                 5286964.130675802                 3.1633084871794483e-16            -2.1996962485366253e-17              10                                   0                                       9                                      9                                   0                                      13                                2.9423162199226847e-16             178.99912407161727                     178.99912407161727                       179.11963918503719             4.1056652082163753e-22  0.02                -0.014142135623730951  0.014142135623730951  0                    2.1377056023757504e-17       7.2176013539804502e-19         12                           2                          2                    0.33998440145309966  0.15976342223605819  0.023390393295418088
                 5098472.0487832092                2.9561610302078592e-16            -2.0714745697158926e-17              11                                   0                                       10                                     10                                  0                                      14                                2.7403202630972497e-16             178.62884150592916                     178.99912407161727                       179.11963918503719             4.3663857273501682e-22  0.02                -0.014142135623730951  0.014142135623730951  0                    2.086117013573383e-17       7.2246993675437107e-19         13                           3                          2                    0.36137303439086488  0.16970754986778061  0.023758136891348244
                 4709482.1100445269                2.7533058919312917e-16            -2.028551382765674e-17              12                                   0                                       11                                     11                                  0                                      15                                2.542776013546352e-16             179.57375193544226                     179.57375193544226                       179.57375193544226             4.6346946177339132e-22  0.02                -0.014142135623730951  0.014142135623730951  0                    2.0329860156145725e-17       7.2266421288648568e-19         14                           4                          2                    0.3832988175163734   0.17985573094701729  0.023915341213400595
                 4709480.1226381995                2.7533082092786005e-16             2.3173473088669016e-22              12                                   0                                       12                                     12                                  0                                      16                                2.542776013546352e-16             179.57375193544226                     179.57375193544226                       179.57375193544226             6.9520419266008693e-22  0.029999999999999999 -0.021213203435596427  0.021213203435596427  0                    2.0329860156145725e-17       7.2266421288648568e-19         15                           0                          3                    0.3832988175163734   0.17985573094701729  0.023915341213400595
                 4614670.4726573899                2.5472508436487166e-16            -2.0605736562988398e-17              13                                   0                                       12                                     12                                  0                                      17                                2.3423845236538381e-16             177.04814405432211                     179.57375193544226                       179.57375193544226             7.3826528942372569e-22  0.029999999999999999 -0.021213203435596427  0.021213203435596427  0                    1.976365099168258e-17       7.2224274251581142e-19         16                           1                          3                    0.40659820561672322  0.19055381064165139  0.023865889843608021
                 4866632.330322627                 2.3513900932695072e-16            -1.9586075037920944e-17              14                                   0                                       13                                     13                                  0                                      18                                2.1521672399254468e-16             178.19687313166961                     179.57375193544226                       179.57375193544226             7.8156534962856632e-22  0.029999999999999999 -0.021213203435596427  0.021213203435596427  0                    1.9200346947014836e-17       7.2115682204156622e-19         17                           2                          3                    0.42979978487697035  0.20108415173947441  0.023624910115239563
                 5300897.0149754947                2.1788659359227199e-16            -1.7252415734678712e-17              15                                   0                                       14                                     14                                  0                                      19                                1.9848237359775368e-16             178.96648813498115                     179.57375193544226                       179.57375193544226             8.2191288840923902e-22  0.029999999999999999 -0.021213203435596427  0.021213203435596427  0                    1.8683827299091152e-17       7.1957078253875044e-19         18                           3                          3                    0.45117200506771932  0.21064915340122026  0.023269656499498852
                 5524524.6611338733                2.0314269620468131e-16            -1.4743897387590693e-17              16                                   0                                       15                                     15                                  0                                      20                                1.8419678037493482e-16             178.7775070667071                      179.57375193544226                       179.57375193544226             8.5822031422130539e-22  0.029999999999999999 -0.021213203435596427  0.021213203435596427  0                    1.8227357088287756e-17       7.1770052114450954e-19         19                           4                          3                    0.4701791007484375   0.21903132067877179  0.022882005129945076
                 5524520.5798850749                2.0314298227811937e-16             2.8607343807376884e-22              16                                   0                                       16                                     16                                  0                                      21                                1.8419678037493482e-16             178.7775070667071                      178.7775070667071                        179.57375193544226             1.1442937522950739e-21  0.040000000000000001 -0.028284271247461901  0.028284271247461901  0                    1.8227357088287756e-17       7.1770052114450954e-19         20                           0                          4                    0.4701791007484375   0.21903132067877179  0.022882005129945076
                 5539739.9537416669                1.8994213242867309e-16            -1.3200849849446288e-17              17                                   0                                       16                                     16                                  0                                      22                                1.7141861618958066e-16             178.00949963234646                     178.7775070667071                        179.57375193544226             1.1896883094885289e-21  0.040000000000000001 -0.028284271247461901  0.028284271247461901  0                    1.7806740823697044e-17       7.1558572708589218e-19         21                           1                          4                    0.48779997349972148  0.22668906792708454  0.02249329135864395
                 5354735.8248342564                1.7766975614554094e-16            -1.2272376283132142e-17              18                                   0                                       17                                     17                                  0                                      23                                1.5955038138895539e-16             177.11645385462324                     178.7775070667071                        179.57375193544226             1.2337983933673296e-21  0.040000000000000001 -0.028284271247461901  0.028284271247461901  0                    1.7404935104388434e-17       7.1320585380375777e-19         22                           2                          4                    0.50472637531433506  0.23393425840708365  0.022118309596111031
                 4984903.1275185384                1.6587891472533194e-16            -1.1790841420209008e-17              19                                   0                                       18                                     18                                  0                                      24                                1.4815915750036744e-16             176.16623628273643                     178.7775070667071                        179.57375193544226             1.2781186288697968e-21  0.040000000000000001 -0.028284271247461901  0.028284271247461901  0                    1.7007982165518173e-17       7.1049694081744384e-19         23                           3                          4                    0.52152886900434092  0.2410094170170155   0.0217667848341296 
                 4453195.2608334199                1.5419569355472336e-16            -1.1683221170608583e-17              20                                   0                                       19                                     19                                  0                                      25                                1.3688451317599941e-16             175.14433146544607                     178.7775070667071                        179.57375193544226             1.3241754297149314e-21  0.040000000000000001 -0.028284271247461901  0.028284271247461901  0                    1.660250648463782e-17       7.0734971865641062e-19         24                           4                          4                    0.53876037706401236  0.24813245138611012  0.021449960566659813
                 4453195.6958771143                1.5419602459858078e-16             3.3104385742872834e-22              20                                   0                                       20                                     20                                  0                                      26                                1.3688451317599941e-16             175.14433146544607                     175.14433146544607                       179.57375193544226             1.6552192871436643e-21  0.049999999999999996 -0.035355339059327376  0.035355339059327376  0                    1.660250648463782e-17       7.0734971865641062e-19         25                           0                          5                    0.53876037706401236  0.24813245138611012  0.021449960566659813
                 4099825.9013865227                1.4225530297886796e-16            -1.1940721619712834e-17              21                                   0                                       20                                     20                                  0                                      27                                1.2537649303167183e-16             174.0087517364712                      175.14433146544607                       179.57375193544226             1.7172358789304395e-21  0.049999999999999996 -0.035355339059327376  0.035355339059327376  0                    1.6173501967496367e-17       7.0359074382082879e-19         26                           1                          5                    0.55705030589143778  0.25553333755399377  0.021187230979997095
                 4187966.1982436934                1.305555629326749e-16            -1.1699740046193048e-17              22                                   0                                       21                                     21                                  0                                      28                                1.1411822852184125e-16             172.78786248032512                     175.14433146544607                       179.57375193544226             1.781705236470256e-21  0.049999999999999996 -0.035355339059327376  0.035355339059327376  0                    1.5736255585298785e-17       6.9929712029838955e-19         27                           2                          5                    0.57575676091695793  0.2629200866063453   0.02102818333821083
                 4299305.8188759601                1.2027749981908738e-16            -1.0278063113587526e-17              23                                   0                                       22                                     22                                  0                                      29                                1.0424466931688902e-16             173.88529912305083                     175.14433146544607                       179.57375193544226             1.8419516098953204e-21  0.049999999999999996 -0.035355339059327376  0.035355339059327376  0                    1.5336041657599534e-17       6.9494689298892311e-19         28                           3                          5                    0.59295899214592496  0.26954409495322051  0.021015020672861762
                 4341864.5851327106                1.1124821062573247e-16            -9.0292891933549117e-18              24                                   0                                       23                                     23                                  0                                      30                                9.558492848358272e-17             178.61515722072198                     178.61515722072198                       179.57375193544226             1.8979663085155099e-21  0.049999999999999996 -0.035355339059327376  0.035355339059327376  0                    1.4970783700445897e-17       6.906004753953327e-19         29                           4                          5                    0.60873292405950108  0.27548281301090255  0.021142705634334177
                 4341861.3213856155                1.1124859021899416e-16             3.79593261703101e-22              24                                   0                                       24                                     24                                  0                                      31                                9.558492848358272e-17             178.61515722072198                     178.61515722072198                       179.57375193544226             2.2775595702186116e-21  0.059999999999999998 -0.042426406871192854  0.042426406871192854  0                    1.4970783700445897e-17       6.906004753953327e-19         30                           0                          6                    0.60873292405950108  0.27548281301090255  0.021142705634334177
                 4220367.5496335598                1.0314228308380865e-16            -8.1063071351855166e-18              25                                   0                                       24                                     24                                  0                                      32                                8.7822652849637137e-17             173.04898193900888                     178.61515722072198                       179.57375193544226             2.3410823129466603e-21  0.059999999999999998 -0.042426406871192854  0.042426406871192854  0                    1.4631097425329733e-17       6.8619172652883962e-19         31                           1                          6                    0.62346913281327987  0.28092444113327253  0.021401801285670499
                 4580243.5474147303                9.5560360641017121e-17            -7.5819224427915285e-18              26                                   0                                       25                                     25                                  0                                      33                                8.0574071131594088e-17             174.79800291728077                     178.61515722072198                       179.57375193544226             2.4034107036028069e-21  0.059999999999999998 -0.042426406871192854  0.042426406871192854  0                    1.4302355171235125e-17       6.8153092748430976e-19         32                           2                          6                    0.63778576072614812  0.28612124474857142  0.02179136841549632
                 4774721.5502989339                8.9191607108844227e-17            -6.3687535321728946e-18              27                                   0                                       26                                     26                                  0                                      34                                7.4495339543546928e-17             174.29168448160422                     178.61515722072198                       179.57375193544226             2.4582632929267718e-21  0.059999999999999998 -0.042426406871192854  0.042426406871192854  0                    1.4016692630082512e-17       6.771166719218641e-19         33                           3                          6                    0.65027464060727513  0.29058415168807311  0.022247297426943067
                 4794105.337307862                 8.3576474216805261e-17            -5.6151328920389682e-18              28                                   0                                       27                                     27                                  0                                      35                                6.9144588592674943e-17             172.09070324958722                     178.61515722072198                       179.57375193544226             2.5087380966441176e-21  0.059999999999999998 -0.042426406871192854  0.042426406871192854  0                    1.3756603399503036e-17       6.7277348653063196e-19         34                           4                          6                    0.66167411623152916  0.29459820733740755  0.022747469197937249
# Table End
