# ODT 1.0
# Table Start
# Title: mmArchive Data Table, Wed Jun 11 15:43:07 EDT 2014
# Columns: {Oxs_RungeKuttaEvolve:evolve:Total energy} {Oxs_RungeKuttaEvolve:evolve:Energy calc count} {Oxs_RungeKuttaEvolve:evolve:Max dm/dt} Oxs_RungeKuttaEvolve:evolve:dE/dt {Oxs_RungeKuttaEvolve:evolve:Delta E} Oxs_CubicAnisotropy::Energy Oxs_UniformExchange::Energy {Oxs_UniformExchange::Max Spin Ang} {Oxs_UniformExchange::Stage Max Spin Ang} {Oxs_UniformExchange::Run Max Spin Ang} Oxs_UZeeman::Energy  Oxs_UZeeman::B       Oxs_UZeeman::Bx      Oxs_UZeeman::By      Oxs_UZeeman::Bz      FFTW_Demag::Energy   Oxs_TimeDriver::Iteration {Oxs_TimeDriver::Stage iteration} Oxs_TimeDriver::Stage Oxs_TimeDriver::mx   Oxs_TimeDriver::my   Oxs_TimeDriver::mz   {Oxs_TimeDriver::Last time step} {Oxs_TimeDriver::Simulation time}
# Units:                       J                                            {}                                        deg/ns                                 J/s                                  J                                J                           J                              deg                                    deg                                      deg                            J                 mT                   mT                   mT                   mT                     J                       {}                            {}                          {}                   {}                   {}                   {}                          s                                 s                
                       5.0427954329738436e-18                          1                                           1570.9045089481015                  -1.7363966704338251e-08                 0                               -8.9917260260424522e-22         0                               0                                      0                                        0                              0                    0                    0                    0                    0                    5.0436946055764481e-18    0                             0                           0                     0.99975009371095458  0.019995001874219091  0.0099975009371095457        0                                0                         
                       5.0426904737658391e-18                          7                                           1569.7768548096649                  -1.7347803040502992e-08                -1.0495920800471225e-22             -8.9887749667339051e-22         1.0079171131267427e-25             0.0060962771097363231                    0.0060962771097363231                      0.0060962771097363231            0                    0                    0                    0                    0                    5.0435892504708014e-18    1                             1                           0                     0.9997501757751861   0.019991387989224486  0.0099964652904054735        6.0474713427115478e-15              6.0474713427115478e-15       
                       5.0422716129183278e-18                          13                                          1565.2564138962489                  -1.7283314614747606e-08                -4.1886084751084339e-22             -8.9773820321722932e-22         2.5118141716593201e-24             0.030411452388681214                    0.030411452388681214                      0.030411452388681214            0                    0                    0                    0                    0                    5.0431668393073736e-18    2                             2                           0                     0.99975049257705462  0.019976936607375855  0.0099923226753787665        2.4189885370846191e-14              3.0237356713557741e-14       
                       5.0406116731657121e-18                          19                                          1554.1859241704685                  -1.7028004081358309e-08                -1.6599397526162332e-21             -8.9383273453490084e-22         4.3748160702083916e-23             0.12653529272316941                    0.12653529272316941                      0.12653529272316941            0                    0                    0                    0                    0                    5.0414617577395447e-18    3                             3                           0                     0.99975157828110428  0.019919197656135989  0.0099757517208757997        9.6759541483384765e-14              1.269968981969425e-13       
                       5.034212927593101e-18                          25                                          1520.0711592294583                  -1.604804365965973e-08                -6.398745572611108e-21             -8.882339421555264e-22         6.8082001190600127e-22             0.49196655850709231                    0.49196655850709231                      0.49196655850709231            0                    0                    0                    0                    0                    5.0344203415233507e-18    4                             4                           0                     0.99975312939182781  0.019689309907260883  0.0099094573231279185        3.8703816593353906e-13              5.1403506413048151e-13       
                      -4.7652972928177242e-18                          26                                          1516.28505364424                    -1.6061855845930953e-08                -9.7995102204108252e-18             -8.882339421555264e-22         6.8082001190600127e-22             0.49196655850709231                    0.49196655850709231                      0.49196655850709231           -9.7995102204108252e-18  50.002499937503131   50.000000000000007   0.5                  0                    5.0344203415233507e-18    5                             0                           1                     0.99975312939182781  0.019689309907260883  0.0099094573231279185        0                                5.1403506413048151e-13       
                      -4.7653978751667764e-18                          32                                          1515.6646137704338                  -1.604583394549839e-08                -1.0058234905192591e-22             -8.8823089435927749e-22         6.969029676861244e-22             0.49761247067148046                    0.49761247067148046                      0.49761247067148046           -9.7995098001326301e-18  50.002499937503131   50.000000000000007   0.5                  0                    5.0343032528925278e-18    6                             1                           1                     0.99975313008437416  0.019684952099617636  0.0099085927613166685        6.2653126977461766e-15              5.2030037682822771e-13       
                      -4.7657992023989394e-18                          38                                          1513.1757291795191                  -1.5981922718043566e-08                -4.0132723216330935e-22             -8.882576621108734e-22         7.6296273559259378e-22             0.52011102289422162                    0.52011102289422162                      0.52011102289422162           -9.7995080131519692e-18  50.002499937503131   50.000000000000007   0.5                  0                    5.0338341056795475e-18    7                             2                           1                     0.99975312199935562  0.019667526104918079  0.0099051321533215123        2.5061250790984706e-14              5.4536162761921242e-13       
                      -4.7673885999599796e-18                          44                                          1503.1140249391717                  -1.5729082744310285e-08                -1.5893975610401817e-21             -8.8898102434684968e-22         1.0543038477765857e-21             0.60874128552049711                    0.60874128552049711                      0.60874128552049711           -9.7994991904638756e-18  50.002499937503131   50.000000000000007   0.5                  0                    5.0319452676804668e-18    8                             3                           1                     0.99975291792572651  0.019597906038320591  0.0098912519873817079        1.0024500316393883e-13              6.4560663078315124e-13       
                      -4.7734993516478161e-18                          50                                          1461.6458406125755                  -1.4761509567908806e-08                -6.1107516878361827e-21             -9.0129141185036925e-22         2.619657130226116e-21             0.94154104304176167                    0.94154104304176167                      0.94154104304176167           -9.7994383050105641e-18  50.002499937503131   50.000000000000007   0.5                  0                    5.0242205876443723e-18    9                             4                           1                     0.99974947641448664  0.019320777026464467  0.009835130122169012        4.009800126557553e-13              1.0465866434389065e-12       
                      -1.457293765665838e-17                          51                                          1455.278457592053                   -1.474467355388043e-08                -9.7994383050105641e-18             -9.0129141185036925e-22         2.619657130226116e-21             0.94154104304176167                    0.94154104304176167                      0.94154104304176167           -1.9598876610021128e-17  100.00499987500626   100.00000000000001   1                    0                    5.0242205876443723e-18    10                            0                           2                     0.99974947641448664  0.019320777026464467  0.009835130122169012        0                                1.0465866434389065e-12       
                      -1.4573033857630183e-17                          57                                          1454.5537333381674                  -1.4728845793526716e-08                -9.6200971803673508e-23             -9.015692263652924e-22         2.6499003906918355e-21             0.94665355169572418                    0.94665355169572418                      0.94665355169572418           -1.9598874076869616e-17  100.00499987500626   100.00000000000001   1                    0                    5.0240918880751045e-18    11                            1                           2                     0.99974939876760616  0.019315617472103048  0.009834410803967384        6.5279603023320926e-15              1.0531146037412387e-12       
                      -1.4573417630145163e-17                          63                                          1451.6534739402705                  -1.4665724398098511e-08                -3.8377251498023557e-22             -9.027168383176108e-22         2.7723059824660126e-21             0.96701272117906845                    0.96701272117906845                      0.96701272117906845           -1.9598863746764797e-17  100.00499987500626   100.00000000000001   1                    0                    5.023576527475486e-18    12                            2                           2                     0.99974907803588486  0.019294986027812464  0.0098315278601651158        2.611184120932837e-14              1.079226444950567e-12       
                      -1.4574936356290869e-17                          69                                          1440.037670994672                   -1.4416253340499712e-08                -1.5187261457068168e-21             -9.0788124667717433e-22         3.2843088550047115e-21             1.0470067659745927                     1.0470067659745927                       1.0470067659745927            -1.9598819308016681e-17  100.00499987500626   100.00000000000001   1                    0                    5.0215065241174836e-18    13                            3                           2                     0.99974763492387153  0.01921256892244028  0.0098199055306880043        1.0444736483731348e-13              1.1836738097878805e-12       
                      -1.4580758099373515e-17                          75                                          1393.7515201292499                  -1.3465355153117422e-08                -5.8217430826437081e-21             -9.3724049325510091e-22         5.6573592496951939e-21             1.3496536952445215                     1.3496536952445215                       1.3496536952445215            -1.9598594263599267e-17  100.00499987500626   100.00000000000001   1                    0                    5.0131160454693122e-18    14                            4                           2                     0.99973943217302241  0.01888465820421387  0.0097719791039504872        4.1778945934925392e-13              1.6014632691371345e-12       
                       5.0159854677217395e-18                          76                                          1414.8851897996838                  -1.3577904803402204e-08                 1.9596743567095254e-17             -9.3724049325510091e-22         5.6573592496951939e-21             1.3496536952445215                     1.3496536952445215                       1.3496536952445215            -1.8506965040129594e-21  0.5                  0                    0.5                  0                    5.0131160454693122e-18    15                            0                           3                     0.99973943217302241  0.01888465820421387  0.0097719791039504872        0                                1.6014632691371345e-12       
                       5.0158943466578292e-18                          82                                          1414.2280284618694                  -1.3564380778499566e-08                -9.1121063910600173e-23             -9.3790916678546686e-22         5.6998830869292948e-21             1.3553893336415783                     1.3553893336415783                       1.3553893336415783            -1.8503371148717884e-21  0.5                  0                    0.5                  0                    5.0129827098525572e-18    16                            1                           3                     0.99973924543383907  0.018880990968079474  0.009770339913369527        6.7143257053563391e-15              1.6081775948424909e-12       
                       5.0155307688342652e-18                          88                                          1411.6015985517993                  -1.3510444972708353e-08                -3.6357782356383846e-22             -9.4061762778872487e-22         5.8711601882826333e-21             1.3783208356790733                     1.3783208356790733                       1.3783208356790733            -1.8489002427013568e-21  0.5                  0                    0.5                  0                    5.0124491265164723e-18    17                            2                           3                     0.99973848903044926  0.0188663290071567   0.0097637839970548534        2.6857302821425356e-14              1.6350348976639161e-12       
                       5.0140908404596942e-18                          94                                          1401.1364870773366                  -1.3297249295099858e-08                -1.439928374571082e-21             -9.5198470316734929e-22         6.57471228773089e-21             1.4698436620350706                     1.4698436620350706                       1.4698436620350706            -1.8431637033184917e-21  0.5                  0                    0.5                  0                    5.0103112765784493e-18    18                            3                           3                     0.99973531420140083  0.018807792891005017  0.009737573821064046        1.0742921128570143e-13              1.7424641089496176e-12       
                       5.0085537259788344e-18                          100                                         1360.2159577514196                  -1.2484173223983111e-08                -5.5371144808598392e-21             -1.0055454902974769e-21         9.6556781751104986e-21             1.8310404407653462                     1.8310404407653462                       1.8310404407653462            -1.8203926576126456e-21  0.5                  0                    0.5                  0                    5.0017239859516337e-18    19                            4                           3                     0.99972034789007957  0.018575435281761685  0.0096329460793936148        4.297168451428057e-13              2.1721809540924235e-12       
                       2.4604892937282011e-17                          101                                         1385.5741611946733                  -1.275201456520299e-08                 1.9596339211303175e-17             -1.0055454902974769e-21         9.6556781751104986e-21             1.8310404407653462                     1.8310404407653462                       1.8310404407653462             1.9594518818645562e-17  100.00000000000001  -100.00000000000001   0                    0                    5.0017239859516337e-18    20                            0                           4                     0.99972034789007957  0.018575435281761685  0.0096329460793936148        0                                2.1721809540924235e-12       
                       2.46048055438337e-17                          107                                         1385.0176506592406                  -1.2740641066195922e-08                -8.7393448310349423e-23             -1.0065972510255047e-21         9.7088937930221257e-21             1.8368088327000727                     1.8368088327000727                       1.8368088327000727             1.959451305816579e-17  100.00000000000001  -100.00000000000001   0                    0                    5.0015901891259137e-18    21                            1                           4                     0.99972005398805031  0.018573335522503655  0.0096304339945849759        6.8563634239605663e-15              2.179037317516384e-12       
                       2.4604456748497508e-17                          113                                         1382.7959325227735                  -1.2695278423488081e-08                -3.4879533619325244e-22             -1.0108360382014154e-21         9.9227381906590354e-21             1.8598550412246426                     1.8598550412246426                       1.8598550412246426             1.9594489841551282e-17  100.00000000000001  -100.00000000000001   0                    0                    5.0010550047937659e-18    22                            2                           4                     0.99971886946690203  0.018564943156457105  0.0096203894706080838        2.7425453695842265e-14              2.2064627712122259e-12       
                       2.4603073922021998e-17                          119                                         1373.98129614614                    -1.2515916504742171e-08                -1.3828264755085333e-21             -1.0282929106142371e-21         1.0793438088966829e-20             1.9515796624674464                     1.9515796624674464                       1.9515796624674464             1.9594394213052214e-17  100.00000000000001  -100.00000000000001   0                    0                    4.998914563791433e-18    23                            3                           4                     0.99971399046184739  0.018531480343454539  0.0095802722560398776        1.0970181478336906e-13              2.3161645859955951e-12       
                       2.4597733982440127e-17                          125                                         1340.0379940643038                  -1.183109514005738e-08                -5.3399395818698143e-21             -1.1057624222382871e-21         1.4497644282882111e-20             2.3097948395827452                     2.3097948395827452                       2.3097948395827452             1.9593969568330883e-17  100.00000000000001  -100.00000000000001   0                    0                    4.9903725322485995e-18    24                            4                           4                     0.99969232491484095  0.018399330048191307  0.0094207672203271732        4.3880725913347624e-13              2.7549718451290716e-12       
                       5.0037644141092436e-18                          126                                         1311.2931024980219                  -1.1533666120430956e-08                -1.9593969568330883e-17             -1.1057624222382871e-21         1.4497644282882111e-20             2.3097948395827452                     2.3097948395827452                       2.3097948395827452             0                    0                    0                    0                    0                    4.9903725322485995e-18    25                            0                           5                     0.99969232491484095  0.018399330048191307  0.0094207672203271732        0                                2.7549718451290716e-12       
                       5.0036808986676449e-18                          132                                         1310.7079807323955                  -1.1521751855673116e-08                -8.3515441598888887e-23             -1.1070265577203304e-21         1.4559997179161207e-20             2.3154589739094833                     2.3154589739094833                       2.3154589739094833             0                    0                    0                    0                    0                    4.9902279280462034e-18    26                            1                           5                     0.99969197108150165  0.018395272517487463  0.0094195425092551948        7.2447570889394897e-15              2.7622166022180109e-12       
                       5.0033476982964966e-18                          138                                         1308.3669030422584                  -1.1474257091380636e-08                -3.3320037114808405e-22             -1.1121108523518821e-21         1.4810087219038955e-20             2.338064495361083                      2.338064495361083                        2.338064495361083              0                    0                    0                    0                    0                    4.9896497219298099e-18    27                            2                           5                     0.99969054791813983  0.018379048438464763  0.0094146434329354205        2.8979028355757959e-14              2.7911956305737687e-12       
                       5.0020285480041821e-18                          144                                         1299.0001501748641                  -1.1286858607858997e-08                -1.3191502923142653e-21             -1.1328849791733106e-21         1.5820905693803143e-20             2.4276524831778263                     2.4276524831778263                       2.4276524831778263             0                    0                    0                    0                    0                    4.9873405272895528e-18    28                            3                           5                     0.99968473192823104  0.018314248849398005  0.009395043392010919        1.1591611342303183e-13              2.9071117439968008e-12       
                       4.996962128893429e-18                          150                                         1261.8843050225055                  -1.0577550990815965e-08                -5.0664191107534627e-21             -1.2225331817682077e-21         2.0007380285990228e-20             2.7716905681925303                     2.7716905681925303                       2.7716905681925303             0                    0                    0                    0                    0                    4.9781772817892072e-18    29                            4                           5                     0.99965961497480771  0.018056599683141421  0.0093165821318315564        4.6366445369212734e-13              3.3707761976889278e-12       
                       4.9084847904460355e-18                          151                                         1476.9661226054561                  -1.8773655000414992e-08                -8.8477338447392984e-20             -1.2225331817682077e-21         2.0007380285990228e-20             2.7716905681925303                     2.7716905681925303                       2.7716905681925303            -8.8477338447392984e-20  25.000000000000004   0                    25.000000000000004   0                    4.9781772817892072e-18    30                            0                           6                     0.99965961497480771  0.018056599683141421  0.0093165821318315564        0                                3.3707761976889278e-12       
                       4.9083640698353644e-18                          157                                         1476.5170339320309                  -1.8763242616191732e-08                -1.2072061067146146e-22             -1.223823431130849e-21         2.0066810345207048e-20             2.7762927786544358                     2.7762927786544358                       2.7762927786544358            -8.8515357701142244e-20  25.000000000000004   0                    25.000000000000004   0                    4.9780364406224303e-18    31                            1                           6                     0.99965925318975524  0.018064358714518822  0.0092928665445674557        6.4321041996829518e-15              3.377208301888611e-12       
                       4.9078818557378549e-18                          163                                         1474.726068899728                   -1.8721737129729534e-08                -4.8221409750985581e-22             -1.2290306930693771e-21         2.0304848882834269e-20             2.7946535762276374                     2.7946535762276374                       2.7946535762276374            -8.8667839249951101e-20  25.000000000000004   0                    25.000000000000004   0                    4.9774738767980406e-18    32                            2                           6                     0.99965779307591174  0.018095477397949204  0.0091980478078433053        2.5728416798731807e-14              3.4029367186873426e-12       
                       4.905963589466625e-18                          169                                         1467.6481574313862                  -1.8558007909039007e-08                -1.918266271229817e-21             -1.250595005815853e-21         2.1261869579631281e-20             2.8673226770784517                     2.8673226770784517                       2.8673226770784517            -8.9284228518454037e-20  25.000000000000004   0                    25.000000000000004   0                    4.9752365434112631e-18    33                            3                           6                     0.99965174639889787  0.018221271126215108  0.0088194701082616126        1.0291366719492723e-13              3.5058503858822701e-12       
                       4.898453453390689e-18                          175                                         1440.68118512607                    -1.7939007903770981e-08                -7.5101360759354658e-21             -1.3483085308486972e-21         2.5153980087494027e-20             3.1453558501935968                     3.1453558501935968                       3.1453558501935968            -9.1852589192214782e-20  25.000000000000004   0                    25.000000000000004   0                    4.9665003710262589e-18    34                            4                           6                     0.9996243441890813   0.018745426365758117  0.0073162801069091973        4.1165466877970892e-13              3.9175050546619789e-12       
# Table End
