# ODT 1.0
# Table Start
# Title: mmArchive Data Table, Wed Aug 17 23:55:59 EDT 2011
# Columns: {Oxs_CGEvolve:evolve:Max mxHxm} {Oxs_CGEvolve:evolve:Total energy} {Oxs_CGEvolve:evolve:Delta E} {Oxs_CGEvolve:evolve:Bracket count} {Oxs_CGEvolve:evolve:Line min count} {Oxs_CGEvolve:evolve:Conjugate cycle count} {Oxs_CGEvolve:evolve:Cycle count} {Oxs_CGEvolve:evolve:Cycle sub count} {Oxs_CGEvolve:evolve:Energy calc count} Oxs_HexAnisotropy::Energy Oxs_UniformExchange::Energy {Oxs_UniformExchange::Max Spin Ang} {Oxs_UniformExchange::Stage Max Spin Ang} {Oxs_UniformExchange::Run Max Spin Ang} Oxs_UZeeman::Energy  Oxs_UZeeman::B       Oxs_UZeeman::Bx      Oxs_UZeeman::By      Oxs_UZeeman::Bz      Oxs_Demag::Energy    Oxs_MinDriver::Iteration {Oxs_MinDriver::Stage iteration} Oxs_MinDriver::Stage Oxs_MinDriver::mx    Oxs_MinDriver::my    Oxs_MinDriver::mz   
# Units:                 A/m                               J                                J                               {}                                   {}                                      {}                                     {}                                  {}                                     {}                                J                          J                              deg                                    deg                                      deg                            J                 mT                   mT                   mT                   mT                     J                       {}                           {}                         {}                 {}                   {}                   {}           
                 4665527.6024606209                3.4105890953055909e-16             3.4105890953055909e-16              0                                    0                                       1                                      1                                   1                                      1                               -4.1637150028228929e-19        3.2402787102995687e-16             176.22836973166156                     176.22836973166156                       176.22836973166156             0                    0                    0                    0                    0                    1.7447410000884513e-17    0                            0                          0                   -0.026461485663698332  0.024350787056594773  0.017173094200909522
                 4665569.7910840735                3.4097302877167932e-16            -8.5880758879772933e-20              1                                    0                                       1                                      1                                   1                                      2                               -4.1641161968720006e-19        3.2394269115727226e-16             176.21912648456399                     176.22836973166156                       176.22836973166156             0                    0                    0                    0                    0                    1.744674923409428e-17    1                            1                          0                   -0.026482729786766742  0.024368576934585884  0.01718487662975118
                 4665667.5093243998                3.4071538204702491e-16            -2.5764672465440985e-19              2                                    0                                       1                                      1                                   1                                      3                               -4.1653245181612494e-19        3.2368714756988485e-16             176.19119579341103                     176.22836973166156                       176.22836973166156             0                    0                    0                    0                    0                    1.7444766928956201e-17    2                            2                          0                   -0.026546455306159913  0.024421929324188772  0.017220206019228513
                 4667307.7455746327                3.4076974918749196e-16             5.4367140467051268e-20              2                                    0                                       2                                      2                                   2                                      4                               -4.1653245181612494e-19        3.2368714756988485e-16             176.19119579341103                     176.19119579341103                       176.22836973166156             5.4367140467015566e-20  20                   20                   0                    0                    1.7444766928956201e-17    3                            0                          1                   -0.026546455306159913  0.024421929324188772  0.017220206019228513
                 4667320.9668094311                3.4068397762801716e-16            -8.5771559474806708e-20              3                                    0                                       2                                      2                                   0                                      5                               -4.1657282464696062e-19        3.2360203685649401e-16             176.18149924389223                     176.19119579341103                       176.22836973166156             5.4406573671386397e-20  20                   20                   0                    0                    1.74441070224987e-17    4                            1                          1                   -0.026565709800481598  0.024439764282297532  0.017231998887939651
                 4667331.6838901276                3.4042665912255643e-16            -2.5731850546072976e-19              4                                    0                                       2                                      2                                   0                                      6                               -4.1669440621102972e-19        3.2334670134716382e-16             176.19362318143561                     176.19362318143561                       176.22836973166156             5.4524859071745263e-20  20                   20                   0                    0                    1.7442127322531881e-17    5                            2                          1                   -0.026623466343625581  0.024493251854129972  0.017267359826995569
                 4668954.4943359653                3.4048118398162815e-16             5.4524859071719624e-20              4                                    0                                       3                                      3                                   1                                      7                               -4.1669440621102972e-19        3.2334670134716382e-16             176.19362318143561                     176.19362318143561                       176.22836973166156             1.0904971814349053e-19  40                   40                   0                    0                    1.7442127322531881e-17    6                            0                          2                   -0.026623466343625581  0.024493251854129972  0.017267359826995569
                 4668938.6573575065                3.4039551177946637e-16            -8.5672202161776348e-20              5                                    0                                       3                                      3                                   0                                      8                               -4.1673502536784311e-19        3.2326165809545745e-16             176.21093436077356                     176.21093436077356                       176.22836973166156             1.0912042098507494e-19  40                   40                   0                    0                    1.7441468288391728e-17    7                            1                          2                   -0.026640727779559378  0.024511132460123645  0.017279163747033904
                 4668862.1011708109                3.4013849193256813e-16            -2.5701984689824271e-19              6                                    0                                       3                                      3                                   0                                      9                               -4.1685733516449811e-19        3.2300652553880455e-16             176.30168029759227                     176.30168029759227                       176.30168029759227             1.0933250073984271e-19  40                   40                   0                    0                    1.7439491228188201e-17    8                            2                          2                   -0.026692505063438163  0.024564756915386378  0.017314558068394742
                 4670467.4795620516                3.4019315818293802e-16             5.4666250369895738e-20              6                                    0                                       4                                      4                                   1                                      10                              -4.1685733516449811e-19        3.2300652553880455e-16             176.30168029759227                     176.30168029759227                       176.30168029759227             1.6399875110976411e-19  60.000000000000014   60.000000000000014   0                    0                    1.7439491228188201e-17    9                            0                          3                   -0.026692505063438163  0.024564756915386378  0.017314558068394742
                 4670422.4938374506                3.4010757544069439e-16            -8.5582742243627701e-20              7                                    0                                       4                                      4                                   0                                      11                              -4.1689819361521294e-19        3.2292154801928978e-16             176.33190888675509                     176.33190888675509                       176.33190888675509             1.6409253801060832e-19  60.000000000000014   60.000000000000014   0                    0                    1.7438833077009237e-17    10                           1                          3                   -0.02670776985849746  0.024582683741865792  0.017326373654297542
                 4670258.3931328123                3.3985082452595143e-16            -2.5675091474296182e-19              8                                    0                                       4                                      4                                   0                                      12                              -4.1702121064372535e-19        3.2266661319438292e-16             176.42258761810652                     176.42258761810652                       176.42258761810652             1.6437385507744636e-19  60.000000000000014   60.000000000000014   0                    0                    1.7436858687134804e-17    11                           2                          3                   -0.026753557141511494  0.024636446796246925  0.017361803199943383
                 4671846.334556262                 3.3990561581097725e-16             5.4791285025814698e-20              8                                    0                                       5                                      5                                   1                                      13                              -4.1702121064372535e-19        3.2266661319438292e-16             176.42258761810652                     176.42258761810652                       176.42258761810652             2.1916514010326178e-19  80                   80                   0                    0                    1.7436858687134804e-17    12                           0                          4                   -0.026753557141511494  0.024636446796246925  0.017361803199943383
                 4671772.1098280521                3.3982011257451728e-16            -8.5503236459970237e-20              9                                    0                                       5                                      5                                   0                                      14                              -4.1706230142213862e-19        3.2258169964551297e-16             176.45279490774206                     176.45279490774206                       176.45279490774206             2.1927380221031366e-19  80                   80                   0                    0                    1.7436201428216127e-17    13                           1                          4                   -0.026766821558876133  0.024654420420760482  0.017373631069424012
                 4671520.1941632414                3.3956360069542662e-16            -2.5651187909065317e-19              10                                   0                                       5                                      5                                   0                                      15                              -4.17186004877617e-19        3.2232695723534891e-16             176.54341026285064                     176.54341026285064                       176.54341026285064             2.19599729757229e-19  80                   80                   0                    0                    1.7434229735198108e-17    14                           2                          4                   -0.026806607636380483  0.024708323804774925  0.017409097690878072
                 4673090.6950501064                3.3961850062786594e-16             5.4899932439315472e-20              10                                   0                                       6                                      6                                   1                                      16                              -4.17186004877617e-19        3.2232695723534891e-16             176.54341026285064                     176.54341026285064                       176.54341026285064             2.7449966219653629e-19  100                  100                  0                    0                    1.7434229735198108e-17    15                           0                          5                   -0.026806607636380483  0.024708323804774925  0.017409097690878072
                 4672987.1413198952                3.3953306688484849e-16            -8.543374301744819e-20              11                                   0                                       6                                      6                                   0                                      17                              -4.1722732108141664e-19        3.2224210586333855e-16             176.57359752478405                     176.57359752478405                       176.57359752478405             2.7461496610173816e-19  100                  100                  0                    0                    1.7433573376489631e-17    16                           1                          5                   -0.0268178677833729   0.02472634480993325  0.017420938464924342
                 4672647.141011999                 3.3927676397040049e-16            -2.5630291444799864e-19              12                                   0                                       6                                      6                                   0                                      18                              -4.1735169034885978e-19        3.2198755045427924e-16             176.66415332428332                     176.66415332428332                       176.66415332428332             2.7496080366704509e-19  100                  100                  0                    0                    1.7431604402803046e-17    17                           2                          5                   -0.026851640983109902  0.024780390269266248  0.017456444023547169
# Table End
