# ODT 1.0
# Table Start
# Title: mmArchive Data Table, Wed Jun 11 15:42:34 EDT 2014
# Columns: {Oxs_CGEvolve:evolve:Max mxHxm} {Oxs_CGEvolve:evolve:Total energy} {Oxs_CGEvolve:evolve:Delta E} {Oxs_CGEvolve:evolve:Bracket count} {Oxs_CGEvolve:evolve:Line min count} {Oxs_CGEvolve:evolve:Conjugate cycle count} {Oxs_CGEvolve:evolve:Cycle count} {Oxs_CGEvolve:evolve:Cycle sub count} {Oxs_CGEvolve:evolve:Energy calc count} Oxs_HexAnisotropy::Energy Oxs_UniformExchange::Energy {Oxs_UniformExchange::Max Spin Ang} {Oxs_UniformExchange::Stage Max Spin Ang} {Oxs_UniformExchange::Run Max Spin Ang} Oxs_UZeeman::Energy  Oxs_UZeeman::B       Oxs_UZeeman::Bx      Oxs_UZeeman::By      Oxs_UZeeman::Bz      Oxs_Demag::Energy    Oxs_MinDriver::Iteration {Oxs_MinDriver::Stage iteration} Oxs_MinDriver::Stage Oxs_MinDriver::mx    Oxs_MinDriver::my    Oxs_MinDriver::mz   
# Units:                 A/m                               J                                J                               {}                                   {}                                      {}                                     {}                                  {}                                     {}                                J                          J                              deg                                    deg                                      deg                            J                 mT                   mT                   mT                   mT                     J                       {}                           {}                         {}                 {}                   {}                   {}           
                 4665527.6024587266                3.4105890953054864e-16             3.4105890953054864e-16              0                                    0                                       1                                      1                                   0                                      1                               -4.1637150028228953e-19        3.2402787102995687e-16             176.22836973166159                     176.22836973166159                       176.22836973166159             0                    0                    0                    0                    0                    1.7447410000874067e-17    0                            0                          0                   -0.026461485663698329  0.024350787056594804  0.017173094200909532
                 4665569.7910821829                3.4097302877166887e-16            -8.5880758879773607e-20              1                                    0                                       1                                      1                                   0                                      2                               -4.164116196872004e-19        3.2394269115727221e-16             176.21912648456396                     176.22836973166159                       176.22836973166159             0                    0                    0                    0                    0                    1.744674923408384e-17    1                            1                          0                   -0.026482729786766725  0.024368576934585901  0.017184876629751183
                 4580652.7255912293                3.2381441401990893e-16            -1.7158614751759926e-17              2                                    0                                       1                                      1                                   0                                      3                               -4.2557664110168903e-19        3.0692509552571553e-16             177.88976928076454                     177.88976928076454                       177.88976928076454             0                    0                    0                    0                    0                    1.7314895135295116e-17    2                            2                          0                   -0.030712370845065517  0.027875481509498229  0.019482898477752909
                 4326944.6232282873                3.0652807612605716e-16            -1.7286337893851786e-17              3                                    0                                       2                                      2                                   0                                      4                               -4.3515644942013527e-19        2.8978520468562985e-16             175.6999541979776                      177.88976928076454                       177.88976928076454             0                    0                    0                    0                    0                    1.717802788984743e-17    3                            3                          0                   -0.035350327888954307  0.031791505233293237  0.021946650970979212
                 4295232.6463199528                2.8878944296356874e-16            -1.7738633162488429e-17              4                                    0                                       3                                      3                                   0                                      5                               -4.4418163003283245e-19        2.7219912070395159e-16             176.18454520539737                     177.88976928076454                       177.88976928076454             0                    0                    0                    0                    0                    1.7034503889649953e-17    4                            4                          0                   -0.040541399910491507  0.036201074547332707  0.024626758488242226
                 4296328.4548187414                2.8887247175058544e-16             8.3028787016686602e-20              4                                    0                                       4                                      4                                   0                                      6                               -4.4418163003283245e-19        2.7219912070395159e-16             176.18454520539737                     176.18454520539737                       177.88976928076454             8.3028787016686614e-20  20                   20                   0                    0                    1.7034503889649953e-17    5                            0                          1                   -0.040541399910491507  0.036201074547332707  0.024626758488242226
                 4147838.1530988566                2.7181193873271346e-16            -1.7060533017871934e-17              5                                    0                                       4                                      4                                   0                                      7                               -4.5083741389329847e-19        2.5527546487407587e-16             177.07899245556703                     177.07899245556703                       177.88976928076454             9.3345343984583627e-20  20                   20                   0                    0                    1.6893965928546308e-17    6                            1                          1                   -0.045578781242472471  0.04083989080953479  0.027365466785580786
                 4184514.004964218                 2.5509186487481727e-16            -1.6720073857896231e-17              6                                    0                                       5                                      5                                   0                                      8                               -4.5329337414819632e-19        2.3868786212942044e-16             171.73587674647416                     177.07899245556703                       177.88976928076454             1.0435211152760798e-19  20                   20                   0                    0                    1.67529440080174e-17    7                            2                          1                   -0.050953179456839824  0.045740892303100904  0.030185722011484256
                 4049033.662173782                 2.3952720338603139e-16            -1.5564661488785878e-17              7                                    0                                       6                                      6                                   0                                      9                               -4.5026846037343181e-19        2.232449729668538e-16             175.36191743119542                     177.07899245556703                       177.88976928076454             1.1551130053559846e-19  20                   20                   0                    0                    1.6616987579015432e-17    8                            3                          1                   -0.056402002214647681  0.050609188536494626  0.032925456357487816
                 3788677.9438297842                2.244802411414204e-16            -1.5046962244610988e-17              8                                    0                                       7                                      7                                   0                                      10                              -4.4333028651518006e-19        2.0831703130925856e-16             177.55171944480915                     177.55171944480915                       177.88976928076454             1.2722279692515902e-19  20                   20                   0                    0                    1.6479317321751838e-17    9                            4                          1                   -0.062120506311112794  0.055562435314099733  0.035666331452913494
                 3774899.4916108195                2.2460746393834555e-16             1.2722279692515902e-19              8                                    0                                       8                                      8                                   0                                      11                              -4.4333028651518006e-19        2.0831703130925856e-16             177.55171944480915                     177.55171944480915                       177.88976928076454             2.5444559385031804e-19  40                   40                   0                    0                    1.6479317321751838e-17    10                           0                          2                   -0.062120506311112794  0.055562435314099733  0.035666331452913494
                 3756030.1179599515                2.0961597777146462e-16            -1.499148616688093e-17              9                                    0                                       8                                      8                                   0                                      12                              -4.3609880498608046e-19        1.9343963702494442e-16             178.95280994804966                     178.95280994804966                       178.95280994804966             2.777777859487023e-19  40                   40                   0                    0                    1.633466176555758e-17    11                           1                          2                   -0.067816842272632391  0.060726632122786763  0.038499540298410052
                 3874357.075042313                 1.9566763039875197e-16            -1.3948347372712633e-17              10                                   0                                       9                                      9                                   0                                      13                              -4.3275106025600834e-19        1.7960849742748376e-16             176.68021245394709                     178.95280994804966                       178.95280994804966             3.0122081910701826e-19  40                   40                   0                    0                    1.6190663212417207e-17    12                           2                          2                   -0.073540239039799365  0.065723420491669626  0.041209645063872154
                 3969278.0795220374                1.8314933701123041e-16            -1.251829338752156e-17              11                                   0                                       10                                     10                                  0                                      14                              -4.3349972187072256e-19        1.6720692629154706e-16             174.52818557330497                     178.95280994804966                       178.95280994804966             3.2373573293770171e-19  40                   40                   0                    0                    1.6052174708616377e-17    13                           3                          2                   -0.079037044174243579  0.070370173342240008  0.043693805716448  
                 3946772.0782738859                1.7182213572592071e-16            -1.132720128530972e-17              12                                   0                                       11                                     11                                  0                                      15                              -4.3545983898446096e-19        1.5599382801163603e-16             168.91290169463193                     178.95280994804966                       178.95280994804966             3.4521202914336063e-19  40                   40                   0                    0                    1.5918555524125789e-17    14                           4                          2                   -0.084280280552578274  0.074719267479424714  0.045977003922323845
                 3946465.1529349769                1.7199474174049238e-16             1.7260601457168031e-19              12                                   0                                       12                                     12                                  0                                      16                              -4.3545983898446096e-19        1.5599382801163603e-16             168.91290169463193                     168.91290169463193                       178.95280994804966             5.1781804371504092e-19  60.000000000000007   60.000000000000007   0                    0                    1.5918555524125789e-17    15                           0                          3                   -0.084280280552578274  0.074719267479424714  0.045977003922323845
                 3776395.9980860422                1.6145784207529441e-16            -1.0536899665197978e-17              13                                   0                                       12                                     12                                  0                                      17                              -4.3604217627317585e-19        1.4556010832344548e-16             170.59495037001409                     170.59495037001409                       178.95280994804966             5.4606727872391558e-19  60.000000000000007   60.000000000000007   0                    0                    1.5787708649398177e-17    16                           1                          3                   -0.08887813781313729  0.078925403020965068  0.048157440382628536
                 3776407.2222580905                1.5129046855831058e-16            -1.0167373516983832e-17              14                                   0                                       13                                     13                                  0                                      18                              -4.3449355889697512e-19        1.3549660362051955e-16             170.55972997510017                     170.59495037001409                       178.95280994804966             5.7360720971839492e-19  60.000000000000007   60.000000000000007   0                    0                    1.5654751286969603e-17    17                           2                          3                   -0.093360548456769984  0.083149959763843678  0.050294816788594543
                 3826163.0333933737                1.4194649518500076e-16            -9.3439733733098049e-18              15                                   0                                       14                                     14                                  0                                      19                              -4.3249205972211278e-19        1.2625402225286725e-16             173.64037393274509                     173.64037393274509                       178.95280994804966             5.9872504137306883e-19  60.000000000000007   60.000000000000007   0                    0                    1.5526239950482547e-17    18                           3                          3                   -0.097448737202647906  0.087225857073775337  0.05229930373223423
                 3697436.2868965291                1.3348516953249024e-16            -8.4613256525105162e-18              16                                   0                                       15                                     15                                  0                                      20                              -4.3181219205590054e-19        1.1789254281474669e-16             175.18098312021223                     175.18098312021223                       178.95280994804966             6.2083641038162201e-19  60.000000000000007   60.000000000000007   0                    0                    1.5403602499417845e-17    19                           4                          3                   -0.10104759283555044  0.091131073943114912  0.054164931942165886
                 3686282.8347295662                1.3369211500261746e-16             2.0694547012720735e-19              16                                   0                                       16                                     16                                  0                                      21                              -4.3181219205590054e-19        1.1789254281474669e-16             175.18098312021223                     175.18098312021223                       178.95280994804966             8.2778188050882941e-19  80                   80                   0                    0                    1.5403602499417845e-17    20                           0                          4                   -0.10104759283555044  0.091131073943114912  0.054164931942165886
                 3394420.4384509195                1.2566622941004765e-16            -8.0258855925698135e-18              17                                   0                                       16                                     16                                  0                                      22                              -4.3270600541889262e-19        1.0996787404396872e-16             173.15967443777629                     175.18098312021223                       178.95280994804966             8.5031723840499045e-19  80                   80                   0                    0                    1.5280744133092824e-17    21                           1                          4                   -0.10379849101623417  0.095089594672065764  0.056030086973481788
                 3060676.56630552                  1.1774184029312842e-16            -7.9243891169192395e-18              18                                   0                                       17                                     17                                  0                                      23                              -4.3503893169528196e-19        1.0215748238506352e-16             173.20032177429346                     175.18098312021223                       178.95280994804966             8.6989599824389386e-19  80                   80                   0                    0                    1.5149500841516268e-17    22                           2                          4                   -0.10618847634813156  0.099292114824631503  0.057950066888727302
                 3329881.6029560645                1.0983289291823391e-16            -7.9089473748944954e-18              19                                   0                                       18                                     18                                  0                                      24                              -4.3942014251540189e-19        9.4382758105986752e-17             174.13719940012356                     175.18098312021223                       178.95280994804966             8.8575702888096709e-19  80                   80                   0                    0                    1.5003797925881595e-17    23                           3                          4                   -0.10812463731457117  0.10384616074657145  0.059954173618769209
                 3610928.3940693657                1.0331951640186179e-16            -6.5133765163721281e-18              20                                   0                                       19                                     19                                  0                                      25                              -4.452089044536468e-19        8.8003263682453432e-17             173.50967161426829                     175.18098312021223                       178.95280994804966             8.9494845405874612e-19  80                   80                   0                    0                    1.4866513169803261e-17    24                           4                          4                   -0.10924663745834301  0.10794119961843715  0.061679097409296731
                 3622369.6554662427                1.0354325351537647e-16             2.2373711351468653e-19              20                                   0                                       20                                     20                                  0                                      26                              -4.452089044536468e-19        8.8003263682453432e-17             173.50967161426829                     173.50967161426829                       178.95280994804966             1.1186855675734325e-18  100.00000000000001   100.00000000000001   0                    0                    1.4866513169803261e-17    25                           0                          5                   -0.10924663745834301  0.10794119961843715  0.061679097409296731
                 3749398.741715807                 9.8120383873838932e-17            -5.4228696415375347e-18              21                                   0                                       20                                     20                                  0                                      27                              -4.5165773290062973e-19        8.2717462513627281e-17             174.06988590664312                     174.06988590664312                       178.95280994804966             1.1190003481282354e-18  100.00000000000001   100.00000000000001   0                    0                    1.4735578744984054e-17    26                           1                          5                   -0.10927737774689797  0.11161643601276919  0.063200365524281668
                 3729281.4939546734                9.3335687452398843e-17            -4.7846964214400948e-18              22                                   0                                       21                                     21                                  0                                      28                              -4.5756871478695202e-19        7.8075807009613191e-17             171.48300772356319                     174.06988590664312                       178.95280994804966             1.1149669496018787e-18  100.00000000000001   100.00000000000001   0                    0                    1.4602482207970727e-17    27                           2                          5                   -0.10888349117205845  0.11506552461068709  0.064587974268190088
                 3565973.3590260851                8.8931991137918639e-17            -4.4036963144802014e-18              23                                   0                                       22                                     22                                  0                                      29                              -4.6168597534637793e-19        7.382516023932258e-17             168.40614467218825                     174.06988590664312                       178.95280994804966             1.107138063958923e-18  100.00000000000001   100.00000000000001   0                    0                    1.446137880998351e-17    28                           3                          5                   -0.10811895155848857  0.1184145083848093   0.065902837784639345
                 3340980.3769667116                8.4717359919102752e-17            -4.2146312188158936e-18              24                                   0                                       23                                     23                                  0                                      30                              -4.6341180991396247e-19        6.9779350341531428e-17             171.40975350386861                     174.06988590664312                       178.95280994804966             1.0954325735113189e-18  100.00000000000001   100.00000000000001   0                    0                    1.4305988813973966e-17    29                           4                          5                   -0.10697583725696473  0.12177444735393844  0.067187538007247069
# Table End
