# ODT 1.0
# Table Start
# Title: mmArchive Data Table, Thu Dec 15 01:13:54 EST 2011
# Columns: {Oxs_CGEvolve::Max mxHxm} {Oxs_CGEvolve::Total energy} {Oxs_CGEvolve::Delta E} {Oxs_CGEvolve::Bracket count} {Oxs_CGEvolve::Line min count} {Oxs_CGEvolve::Conjugate cycle count} {Oxs_CGEvolve::Cycle count} {Oxs_CGEvolve::Cycle sub count} {Oxs_CGEvolve::Energy calc count} Klm_Demag_PBC::Energy Oxs_MinDriver::Iteration {Oxs_MinDriver::Stage iteration} Oxs_MinDriver::Stage Oxs_MinDriver::mx    Oxs_MinDriver::my    Oxs_MinDriver::mz    {Oxs_MinDriver::Max Spin Ang} {Oxs_MinDriver::Stage Max Spin Ang} {Oxs_MinDriver::Run Max Spin Ang} Klm_Demag_PBC::hx    {Klm_Demag_PBC::octant hx} Klm_Demag_PBC::hy    {Klm_Demag_PBC::octant hy} Klm_Demag_PBC::hz    {Klm_Demag_PBC::octant hz}
# Units:              A/m                         J                          J                         {}                             {}                                {}                               {}                            {}                               {}                           J                      {}                           {}                         {}                 {}                   {}                   {}                         deg                              deg                                deg                       {}                        {}                    {}                        {}                    {}                        {}            
              8.1645770104358181e-05        -4.8684576120594804e-25      -4.8684576120594804e-25        0                              0                                 1                                1                             1                                1                          -4.8684576120594767e-25     0                            0                          0                    0                    0                    1                        0                                0                                  0                           1.9248206087392688e-28     7.0322761522836601e-12     7.8886090522101181e-29     7.0322764075662666e-12    -3.09935637677054e-09    -3.0993563747733823e-09   
# Table End
