# ODT 1.0
# Table Start
# Title: mmArchive Data Table, Thu Dec 15 01:50:44 EST 2011
# Columns: {Oxs_CGEvolve::Max mxHxm} {Oxs_CGEvolve::Total energy} {Oxs_CGEvolve::Delta E} {Oxs_CGEvolve::Bracket count} {Oxs_CGEvolve::Line min count} {Oxs_CGEvolve::Conjugate cycle count} {Oxs_CGEvolve::Cycle count} {Oxs_CGEvolve::Cycle sub count} {Oxs_CGEvolve::Energy calc count} Oxs_UZeeman::Energy  Oxs_UZeeman::B       Oxs_UZeeman::Bx      Oxs_UZeeman::By      Oxs_UZeeman::Bz      Oxs_FixedZeeman::Energy Klm_Demag_PBC::Energy Klm_UniformExchange::Energy Oxs_MinDriver::Iteration {Oxs_MinDriver::Stage iteration} Oxs_MinDriver::Stage Oxs_MinDriver::mx    Oxs_MinDriver::my    Oxs_MinDriver::mz   
# Units:              A/m                         J                          J                         {}                             {}                                {}                               {}                            {}                               {}                          J                 mT                   mT                   mT                   mT                        J                      J                        J                         {}                           {}                         {}                 {}                   {}                   {}           
              4855327.1724231243          4.2210082092967818e-17       4.2210082092967818e-17        0                              0                                 1                                1                             1                                1                          -4.2137638129280799e-20  1000.0000057057898   0                    0                    1000.0000057057898    3.8986836671578886e-22    1.1592781481606189e-18      4.109255171456976e-17        0                            0                          0                   -0.040168051599442825  0.074675967385028866  0.003860605132992201
              4856292.0958138378          4.2194115090605069e-17      -1.5967002362749038e-20        1                              0                                 1                                1                             1                                2                          -4.3286487063002977e-20  1000.0000057057898   0                    0                    1000.0000057057898    3.8985348285785107e-22    1.1592130746036472e-18      4.1077798649581577e-17        1                            1                          0                   -0.040216027453436935  0.07473470331290355  0.0039658614379837684
              4859123.9810160315          4.2146206570194374e-17      -4.7908520410695131e-20        2                              0                                 1                                1                             1                                3                          -4.6732932368242602e-20  1000.0000057057898   0                    0                    1000.0000057057898    3.8980859700340101e-22    1.1590175037901476e-18      4.1033532190175437e-17        2                            2                          0                   -0.040359867030462418  0.074910839820223105  0.0042816210540107492
              4855191.9787081527          4.2146673899518058e-17       4.6732932368368437e-22        2                              0                                 2                                2                             2                                4                          -4.6265603044560242e-20  990.00000564873187   0                    0                    990.00000564873187    3.8980859700340101e-22    1.1590175037901476e-18      4.1033532190175437e-17        3                            0                          1                   -0.040359867030462418  0.074910839820223105  0.0042816210540107492
              4856129.2108350843          4.2130719162805328e-17      -1.5954736712729564e-20        3                              0                                 2                                2                             0                                5                          -4.7396274433737276e-20  990.00000564873187   0                    0                    990.00000564873187    3.8979329167879684e-22    1.1589521016484396e-18      4.1018773542298943e-17        4                            1                          1                   -0.040407911630779836  0.07496968991433392  0.0043862583246069061
              4858878.0930366907          4.2082847568205028e-17      -4.7871594600300287e-20        4                              0                                 2                                2                             0                                6                          -5.078818615999948e-20  990.00000564873187   0                    0                    990.00000564873187    3.8974713568809435e-22    1.1587555479677556e-18      4.0974490459261552e-17        5                            2                          1                   -0.040551957290722182  0.075146168429098395  0.0047001606560327638
              4854972.5707119415          4.2083360580186436e-17       5.1301198140809903e-22        4                              0                                 3                                3                             1                                7                          -5.0275174178585387e-20  980.00000559167404   0                    0                    980.00000559167404    3.8974713568809435e-22    1.1587555479677556e-18      4.0974490459261552e-17        6                            0                          2                   -0.040551957290722182  0.075146168429098395  0.0047001606560327638
              4855882.1875708783          4.2067417869543341e-17      -1.5942710643095013e-20        5                              0                                 3                                3                             0                                8                          -5.1387795741450558e-20  980.00000559167404   0                    0                    980.00000559167404    3.8973139912660484e-22    1.1586898180792364e-18      4.0959726115806425e-17        7                            1                          2                   -0.040600071136207186  0.075205133072580616  0.0048041781990900284
              4861436.3230264606          4.2019582481598794e-17      -4.7835387944546585e-20        6                              0                                 3                                3                             0                                9                          -5.4725557117047835e-20  980.00000559167404   0                    0                    980.00000559167404    3.8968394369716123e-22    1.1584922840348134e-18      4.091542607073733e-17        8                            2                          2                   -0.040744324377365332  0.075381954742318832  0.0051162211696639606
              4854669.3081013486          4.2020140905651013e-17       5.5842405221842179e-22        6                              0                                 4                                4                             1                                10                         -5.4167133064833036e-20  970.00000553461621   0                    0                    970.00000553461621    3.8968394369716123e-22    1.1584922840348134e-18      4.091542607073733e-17        9                            0                          3                   -0.040744324377365332  0.075381954742318832  0.0051162211696639606
              4856536.7912412882          4.2004209982333902e-17      -1.5930923317110484e-20        7                              0                                 4                                4                             0                                11                         -5.5261832419512831e-20  970.00000553461621   0                    0                    970.00000553461621    3.8966776610177447e-22    1.1584262272295005e-18      4.0900655919757817e-17        10                           1                          3                   -0.040792507973032591  0.075441034319214034  0.0052196182611461018
              4864345.836452812           4.195641008441971e-17      -4.7799897914191888e-20        8                              0                                 4                                4                             0                                12                         -5.85458263706398e-20  970.00000553461621   0                    0                    970.00000553461621    3.8961898185059512e-22    1.1582277153012702e-18      4.0856338576507214e-17        11                           2                          3                   -0.04093697031220285  0.075618200294112647  0.0055297997018676319
              4856833.7192579648          4.1957013649640022e-17       6.0356522031144558e-22        8                              0                                 5                                5                             1                                13                         -5.79422611503239e-20  960.00000547755826   0                    0                    960.00000547755826    3.8961898185059512e-22    1.1582277153012702e-18      4.0856338576507214e-17        12                           0                          4                   -0.04093697031220285  0.075618200294112647  0.0055297997018676319
              4859424.2626472758          4.1941102638079016e-17      -1.5911011561005465e-20        9                              0                                 5                                5                             0                                14                         -5.9018600161708514e-20  960.00000547755826   0                    0                    960.00000547755826    3.8960236214253559e-22    1.1581613672855801e-18      4.0841570268592984e-17        13                           1                          4                   -0.040985198826634497  0.075677364098967012  0.0056325216016709775
              4867149.4882811485          4.1893362610321211e-17      -4.7740027757804928e-20        10                             0                                 5                                5                             0                                15                         -6.2247512469182874e-20  960.00000547755826   0                    0                    960.00000547755826    3.89552246111952e-22    1.1579619849378342e-18      4.0797258585606428e-17        14                           2                          4                   -0.041129795864638677  0.075854782337926627  0.0059406773063457622
              4859643.3602938214          4.189401102190943e-17       6.4841158821840451e-22        10                             0                                 6                                6                             1                                16                         -6.1599100880962183e-20  950.00000542050043   0                    0                    950.00000542050043    3.89552246111952e-22    1.1579619849378342e-18      4.0797258585606428e-17        15                           0                          5                   -0.041129795864638677  0.075854782337926627  0.0059406773063457622
              4862205.604960436           4.1878122052748908e-17      -1.5888969160522166e-20        11                             0                                 6                                6                             0                                17                         -6.26570656601265e-20  950.00000542050043   0                    0                    950.00000542050043    3.8953517759856862e-22    1.1578953569685463e-18      4.078249422626289e-17        16                           1                          5                   -0.041178062496266224  0.07591402172433237  0.0060427084604471847
              4869845.921409999           4.183044828845172e-17      -4.7673764297187407e-20        12                             0                                 6                                6                             0                                18                         -6.5830854761016926e-20  950.00000542050043   0                    0                    950.00000542050043    3.8948370981121366e-22    1.1576951380562491e-18      4.0738194521446698e-17        17                           2                          5                   -0.041322773857098087  0.076091666309384909  0.0063487917736309773
              4862345.8826301461          4.1831141244817626e-17       6.9295636590533857e-22        12                             0                                 7                                7                             1                                19                         -6.5137898395111479e-20  940.00000536344237   0                    0                    940.00000536344237    3.8948370981121366e-22    1.1576951380562491e-18      4.0738194521446698e-17        18                           0                          6                   -0.041322773857098087  0.076091666309384909  0.0063487917736309773
              4864879.869497315           4.1815273981642011e-17      -1.58672631756144e-20        13                             0                                 7                                7                             0                                20                         -6.6177643709654759e-20  940.00000536344237   0                    0                    940.00000536344237    3.8946618331944692e-22    1.1576282311692729e-18      4.0723433927999065e-17        19                           1                          6                   -0.041371079270573825  0.076150981774935886  0.0064501325700380427
              4872435.400800013           4.1767665470781909e-17      -4.7608510860102609e-20        14                             0                                 7                                7                             0                                21                         -6.9296773974845047e-20  940.00000536344237   0                    0                    940.00000536344237    3.8941333627885023e-22    1.1574271787795551e-18      4.0679145652640936e-17        20                           2                          6                   -0.041515906949396865  0.076328854197451848  0.0067541446591049131
# Table End
