# ODT 1.0
# Table Start
# Title: mmArchive Data Table, Wed Jun 11 15:43:20 EDT 2014
# Columns: {Oxs_CGEvolve::Max mxHxm} {Oxs_CGEvolve::Total energy} {Oxs_CGEvolve::Delta E} {Oxs_CGEvolve::Bracket count} {Oxs_CGEvolve::Line min count} {Oxs_CGEvolve::Conjugate cycle count} {Oxs_CGEvolve::Cycle count} {Oxs_CGEvolve::Cycle sub count} {Oxs_CGEvolve::Energy calc count} Oxs_UZeeman::Energy  Oxs_UZeeman::B       Oxs_UZeeman::Bx      Oxs_UZeeman::By      Oxs_UZeeman::Bz      Oxs_FixedZeeman::Energy Klm_Demag_PBC::Energy Klm_UniformExchange::Energy Oxs_MinDriver::Iteration {Oxs_MinDriver::Stage iteration} Oxs_MinDriver::Stage Oxs_MinDriver::mx    Oxs_MinDriver::my    Oxs_MinDriver::mz   
# Units:              A/m                         J                          J                         {}                             {}                                {}                               {}                            {}                               {}                          J                 mT                   mT                   mT                   mT                        J                      J                        J                         {}                           {}                         {}                 {}                   {}                   {}           
              4855327.1724231252          4.2210082092967818e-17       4.2210082092967818e-17        0                              0                                 1                                1                             0                                1                          -4.2137638129280823e-20  1000.0000057057899   0                    0                    1000.0000057057899    3.8986836671578886e-22    1.1592781481606162e-18      4.1092551714569767e-17        0                            0                          0                   -0.04016805159944286  0.074675967385028935  0.0038606051329921997
              4856292.0958138388          4.2194115090605069e-17      -1.5967002362750705e-20        1                              0                                 1                                1                             0                                2                          -4.3286487063002959e-20  1000.0000057057899   0                    0                    1000.0000057057899    3.8985348285785098e-22    1.1592130746036435e-18      4.1077798649581571e-17        1                            1                          0                   -0.040216027453436977  0.074734703312903522  0.0039658614379837771
              5225449.1432750039          3.8994314421999876e-17      -3.1998006686051929e-18        2                              0                                 1                                1                             0                                3                          -2.7232147967360877e-19  1000.0000057057899   0                    0                    1000.0000057057899    3.8590920555337131e-22    1.1451379771382739e-18      3.8121112015329654e-17        2                            2                          0                   -0.049495300352400198  0.086223744437168084  0.024949801387216676
              5457369.4381174138          3.5971731292588885e-17      -3.0225831294109885e-18        3                              0                                 2                                2                             0                                4                          -5.1726120355544421e-19  1000.0000057057899   0                    0                    1000.0000057057899    3.787931937074384e-22    1.1295128635259052e-18      3.5359100839424718e-17        3                            3                          0                   -0.058520162365164774  0.097750638743002022  0.04739091572757672
              5680930.9355403595          3.306077248847037e-17      -2.9109588041185138e-18        4                              0                                 3                                3                             0                                5                          -7.7975411586387237e-19  1000.0000057057899   0                    0                    1000.0000057057899    3.6708284771936626e-22    1.1120151485057572e-18      3.2728144372980768e-17        4                            4                          0                   -0.067311430649173526  0.109315238965854    0.071440234332546301
              5677798.1239538677          3.3068570029629011e-17       7.7975411586387226e-21        4                              0                                 4                                4                             0                                6                          -7.7195657470523362e-19  990.00000564873199   0                    0                    990.00000564873199    3.6708284771936626e-22    1.1120151485057572e-18      3.2728144372980768e-17        5                            0                          1                   -0.067311430649173526  0.109315238965854    0.071440234332546301
              5574036.6784647014          3.0281080384199912e-17      -2.7874896454290968e-18        5                              0                                 4                                4                             0                                7                          -1.0442845086992657e-18  990.00000564873199   0                    0                    990.00000564873199    3.5014525125193665e-22    1.0928008506361843e-18      3.0232213897011745e-17        6                            1                          1                   -0.075786732198442355  0.120742456881238    0.096642651226606271
              5525626.5594874434          2.7474513452034627e-17      -2.8065669321652858e-18        6                              0                                 5                                5                             0                                8                          -1.342645526593847e-18  990.00000564873199   0                    0                    990.00000564873199    3.2681219343194387e-22    1.070904574933671e-18      2.7745927591501373e-17        7                            2                          1                   -0.084321122930475501  0.13246719811878896  0.12425428345115844
              5643160.2265077587          2.4704791215543751e-17      -2.7697222364908767e-18        7                              0                                 6                                6                             0                                9                          -1.6615696599779226e-18  990.00000564873199   0                    0                    990.00000564873199    2.9725068003910545e-22    1.0466807774422664e-18      2.5319382847399368e-17        8                            3                          1                   -0.092719909160355954  0.14414921866195937  0.15376891622951458
              5666337.5250890441          2.2077008361627696e-17      -2.627782853916055e-18        8                              0                                 7                                7                             0                                10                         -1.9876024620060102e-18  990.00000564873199   0                    0                    990.00000564873199    2.632185189498387e-22    1.021331806075211e-18      2.3043015799039547e-17        9                            4                          1                   -0.10062843002421876  0.15521600554516313  0.18394141626408853
              5660947.3598282896          2.2097085154173212e-17       2.0076792545515257e-20        8                              0                                 8                                8                             0                                11                         -1.967525669460495e-18  980.00000559167404   0                    0                    980.00000559167404    2.632185189498387e-22    1.021331806075211e-18      2.3043015799039547e-17        10                           0                          2                   -0.10062843002421876  0.15521600554516313  0.18394141626408853
              5354923.1612157067          1.9588288903208252e-17      -2.5087962509649583e-18        9                              0                                 8                                8                             0                                12                         -2.2966009478538132e-18  980.00000559167404   0                    0                    980.00000559167404    2.2542813535565465e-22    9.9521544490599699e-19      2.0889448978020713e-17        11                           1                          2                   -0.10809553505510248  0.16566259916964624  0.21470623611102041
              5176744.1032066625          1.7068486303369168e-17      -2.5198025998390838e-18        10                             0                                 9                                9                             0                                13                         -2.6494511010702991e-18  980.00000559167404   0                    0                    980.00000559167404    1.828435076729551e-22    9.6748000523033577e-19      1.8750274555701458e-17        12                           2                          2                   -0.11541202901104687  0.17588253751286453  0.24769373808828199
              5227990.9951132499          1.4622485647993431e-17      -2.4460006553757369e-18        11                             0                                 10                               10                            0                                14                         -3.0160451199065821e-18  980.00000559167404   0                    0                    980.00000559167404    1.375771442458489e-22    9.3940713739124257e-19      1.6698986053364528e-17        13                           3                          2                   -0.12225591469372414  0.18544080821280925  0.28196613618979188
              5349988.4001733949          1.2373543016069155e-17      -2.2489426319242765e-18        12                             0                                 11                               11                            0                                15                         -3.3776517192098685e-18  980.00000559167404   0                    0                    980.00000559167404    9.3182691226767712e-23    9.1251842187375623e-19      1.483858313071404e-17        14                           4                          2                   -0.12823929889488059  0.19382890238765238  0.31577226692481092
              5344756.6911478145          1.2408008849938644e-17       3.4465833869488453e-20        12                             0                                 12                               12                            0                                16                         -3.3431858853403801e-18  970.00000553461621   0                    0                    970.00000553461621    9.3182691226767712e-23    9.1251842187375623e-19      1.483858313071404e-17        15                           0                          3                   -0.12823929889488059  0.19382890238765238  0.31577226692481092
              5717258.9951927997          1.0388621387668916e-17      -2.0193874622697287e-18        13                             0                                 12                               12                            0                                17                         -3.6877253417464281e-18  970.00000553461621   0                    0                    970.00000553461621    5.150158257562241e-23    8.8693218718823109e-19      1.3189363040644537e-17        16                           1                          3                   -0.1333239339639114   0.20098673294124356  0.34831488014636175
              5866488.0610013781          8.6591484765900386e-18      -1.7294729110788762e-18        14                             0                                 13                               13                            0                                18                         -4.0046900524717027e-18  970.00000553461621   0                    0                    970.00000553461621    1.5226154578069125e-23    8.6311910234799225e-19      1.1800704200559173e-17        17                           2                          3                   -0.13739510941685032  0.2067261464030479   0.37825298968426335
              5803327.487154413           7.1184702016640154e-18      -1.5406782749260238e-18        15                             0                                 14                               14                            0                                19                         -4.3072843028834877e-18  970.00000553461621   0                    0                    970.00000553461621   -1.7047318778262422e-23    8.3949633785871304e-19      1.0586275214007569e-17        18                           3                          3                   -0.14076715665137321  0.21142711894965185  0.40683377331042264
              5540706.3910956848          5.7008390567666071e-18      -1.4176311448974087e-18        16                             0                                 15                               15                            0                                20                         -4.6055683415382724e-18  970.00000553461621   0                    0                    970.00000553461621   -4.6294985333402153e-23    8.1482257462623603e-19      9.4916311186639763e-18        19                           4                          3                   -0.14361797465649739  0.21528041692257305  0.43500744665790969
              5532881.7111547478          5.7483191427618471e-18       4.7480085995239923e-20        16                             0                                 16                               16                            0                                21                         -4.5580882555430324e-18  960.00000547755826   0                    0                    960.00000547755826   -4.6294985333402153e-23    8.1482257462623603e-19      9.4916311186639763e-18        20                           0                          4                   -0.14361797465649739  0.21528041692257305  0.43500744665790969
              5270526.6362545937          4.4096937468747111e-18      -1.3386253958871356e-18        17                             0                                 16                               16                            0                                22                         -4.8568443146182844e-18  960.00000547755826   0                    0                    960.00000547755826   -7.341546852782742e-23    7.8801485727454932e-19      8.4785966196869748e-18        21                           1                          4                   -0.14606224046116326  0.21838518701455389  0.46351964369004506
              5208408.4282488599          3.1493806301850737e-18      -1.2603131166896374e-18        18                             0                                 17                               17                            0                                23                         -5.1590415237811832e-18  960.00000547755826   0                    0                    960.00000547755826   -9.8252327452780637e-23    7.5882958084110673e-19      7.549690825452603e-18        22                           2                          4                   -0.14804606969505521  0.22064142703043016  0.49236025163247232
              4965302.4177209921          2.0131820656826083e-18      -1.1361985645024654e-18        19                             0                                 18                               18                            0                                24                         -5.4518115433006016e-18  960.00000547755826   0                    0                    960.00000547755826   -1.2016904813287331e-22    7.2858813739485683e-19      6.7365256406364861e-18        23                           3                          4                   -0.14948346033226101  0.22195837124442336  0.52030116271383442
              4546375.3321887385          9.568004933167428e-19      -1.0563815723658655e-18        20                             0                                 19                               19                            0                                25                         -5.743921042950574e-18  960.00000547755826   0                    0                    960.00000547755826   -1.4054519996197269e-22    6.9665177604943825e-19      6.0042103054178407e-18        24                           4                          4                   -0.15042605715393609  0.22242385132012421  0.54817903616938368
              4539050.287334484           1.0166330041808113e-18       5.9832510864068475e-20        20                             0                                 20                               20                            0                                26                         -5.6840885320865051e-18  950.00000542050043   0                    0                    950.00000542050043   -1.4054519996197269e-22    6.9665177604943825e-19      6.0042103054178407e-18        25                           0                          5                   -0.15042605715393609  0.22242385132012421  0.54817903616938368
              3994472.9068140611          9.0119196343490864e-21      -1.0076210845464623e-18        21                             0                                 20                               20                            0                                27                         -5.9808220234755428e-18  950.00000542050043   0                    0                    950.00000542050043   -1.6052880760475525e-22    6.6231337882689815e-19      5.3276810930905987e-18        26                           1                          5                   -0.15088658391089044  0.22206062881361932  0.57679630319303932
              3634867.4808411063         -9.8047928923181237e-19      -9.8949120886616144e-19        22                             0                                 21                               21                            0                                28                         -6.2959931857489549e-18  950.00000542050043   0                    0                    950.00000542050043   -1.8055909009681922e-22    6.2453965997868153e-19      4.6911547956285578e-18        27                           2                          5                   -0.15074655068653184  0.22072120893486322  0.60719171716102049
              3639886.7225354342         -1.9082819450086731e-18      -9.2780265577686054e-19        23                             0                                 22                               22                            0                                29                         -6.6169796996853042e-18  950.00000542050043   0                    0                    950.00000542050043   -1.9893558855617306e-22    5.8506930952901023e-19      4.1238273807361765e-18        28                           3                          5                   -0.14989861045954964  0.21836016988992926  0.63814796930940276
              3522775.6939383135         -2.7021271647210449e-18      -7.9384521971237197e-19        24                             0                                 23                               23                            0                                30                         -6.9134712323546145e-18  950.00000542050043   0                    0                    950.00000542050043   -2.1288225102324101e-22    5.4792818119177786e-19      3.6636287686928146e-18        29                           4                          5                   -0.14845863418060573  0.21530560570102467  0.6667419015983822 
              3515917.3230374213         -2.6293537833278386e-18       7.2773381393206466e-20        24                             0                                 24                               24                            0                                31                         -6.8406978509614078e-18  940.00000536344248   0                    0                    940.00000536344248   -2.1288225102324101e-22    5.4792818119177786e-19      3.6636287686928146e-18        30                           0                          6                   -0.14845863418060573  0.21530560570102467  0.6667419015983822 
              3288062.6766723837         -3.3415567264309222e-18      -7.1220294310308369e-19        25                             0                                 24                               24                            0                                32                         -7.1208535739338243e-18  940.00000536344248   0                    0                    940.00000536344248   -2.2284438881278633e-22    5.1178956315122127e-19      3.2677301287404931e-18        31                           1                          6                   -0.14652293269113015  0.21166699677407713  0.694047823237948  
              3100312.9030320076         -4.0172255142535275e-18      -6.7566878782260549e-19        26                             0                                 25                               25                            0                                33                         -7.3989153606021961e-18  940.00000536344248   0                    0                    940.00000536344248   -2.2871670529353121e-22    4.7517745726008092e-19      2.9067411057938815e-18        32                           2                          6                   -0.14402010011199504  0.20734340003339541  0.72114965530893449
              3556171.0829965333         -4.6606775620328688e-18      -6.4345204777934098e-19        27                             0                                 26                               26                            0                                34                         -7.6718714761221488e-18  940.00000536344248   0                    0                    940.00000536344248   -2.3003714813198859e-22    4.3836697093578846e-19      2.5730569803016236e-18        33                           3                          6                   -0.14095624669870896  0.20238496035378581  0.74775385322554078
              3790471.4950252962         -5.1713886049202602e-18      -5.1071104288739111e-19        28                             0                                 27                               27                            0                                35                         -7.8922903770737573e-18  940.00000536344248   0                    0                    940.00000536344248   -2.2736845621361383e-22    4.0792780915137267e-19      2.313201331458339e-18        34                           4                          6                   -0.13797902701113576  0.19780827032051726  0.76923740948991326
# Table End
