# ODT 1.0
# Table Start
# Title: mmArchive Data Table, Wed Jun 11 15:43:04 EDT 2014
# Columns: {Oxs_LagrangeEvolve:evolve:Max mxHxm} {Oxs_LagrangeEvolve:evolve:Delta E} {Oxs_LagrangeEvolve:evolve:Total energy} {Oxs_LagrangeEvolve:evolve:Augmented Lagrangian} {Oxs_LagrangeEvolve:evolve:Lambda cycle count} {Oxs_LagrangeEvolve:evolve:Direction cycle count} {Oxs_LagrangeEvolve:evolve:Bracket cycle count} {Oxs_LagrangeEvolve:evolve:Linemin cycle count} {Oxs_LagrangeEvolve:evolve:Energy calc count} Oxs_UniformExchange::Energy {Oxs_UniformExchange::Max Spin Ang} {Oxs_UniformExchange::Stage Max Spin Ang} {Oxs_UniformExchange::Run Max Spin Ang} Oxs_UZeeman::Energy  Oxs_UZeeman::B       Oxs_UZeeman::Bx      Oxs_UZeeman::By      Oxs_UZeeman::Bz      Oxs_Demag::Energy    Oxs_MinDriver::Iteration {Oxs_MinDriver::Stage iteration} Oxs_MinDriver::Stage Oxs_MinDriver::mx    Oxs_MinDriver::my    Oxs_MinDriver::mz   
# Units:                    A/m                                  J/s                                    J                                            {}                                              {}                                              {}                                               {}                                              {}                                             {}                                    J                              deg                                    deg                                      deg                            J                 mT                   mT                   mT                   mT                     J                       {}                           {}                         {}                 {}                   {}                   {}           
                    356024.71010217321                   2.4324030279119768e-16                    2.4324030279119768e-16                          0                                               0                                               0                                                0                                               0                                              1                                    6.4480000000000002e-17             90                                     90                                       90                             0                    0                    0                    0                    0                    1.7876030279119769e-16    0                            0                          0                    0                    0                    0.096774193548387094
                    355954.22563583771                  -5.2072779144291135e-20                    2.4318823001205339e-16                          2.4324030279119768e-16                             1                                               1                                                1                                               0                                              3                                    6.4453765388840034e-17             89.991642100527585                     90                                       90                             0                    0                    0                    0                    0                    1.7873446462321334e-16    1                            1                          0                   -1.1282020525343439e-25 -1.6636016185850421e-22  0.096755717230993743
                    355883.62557770364                  -5.206452487601554e-20                    2.4313616548717736e-16                          2.4318823001205432e-16                             1                                               1                                                2                                               0                                              4                                    6.4427542096408424e-17             89.983264655719637                     90                                       90                             0                    0                    0                    0                    0                    1.7870862339076894e-16    2                            2                          0                    2.4549676663147323e-24  2.7911538267371261e-21  0.096737232970526901
                    355742.0791947511                   -1.0410420708232185e-19                    2.4303206128009504e-16                          2.431361654871925e-16                             1                                               1                                                3                                               0                                              5                                    6.4375129519029632e-17             89.96645116517665                      90                                       90                             0                    0                    0                    0                    0                    1.7865693176106542e-16    3                            3                          0                   -6.1374191657868307e-25  2.6247936648786217e-21  0.096700240620959263
                    354635.46436836937                  -1.4538942524717556e-18                    2.4157816702762329e-16                          2.4303206128033673e-16                             1                                               1                                                4                                               0                                              6                                    6.364616987031114e-17             89.722897574392917                     90                                       90                             0                    0                    0                    0                    0                    1.7793199715731217e-16    4                            4                          0                    3.1625759936642727e-23  7.0240957229146218e-22  0.096179012650492585
                    373919.67044856003                   0                                      2.4157816702762329e-16                          2.4157816801749828e-16                             1                                               1                                                4                                               0                                              7                                    6.364616987031114e-17             89.722897574392917                     89.722897574392917                       90                            -7.576428433034275e-40  25.000000000000004   25.000000000000004   0                    0                    1.7793199715731217e-16    5                            0                          1                    3.1625759936642727e-23  7.0240957229146218e-22  0.096179012650492585
                    374036.69856326049                  -5.086220344331685e-20                    2.4152730482417996e-16                          2.4157816702762329e-16                             2                                               2                                                5                                               0                                              9                                    6.3621626171638972e-17             89.71431350744696                      89.722897574392917                       90                            -1.7847606308490298e-21  25.000000000000004   25.000000000000004   0                    0                    1.7790746341317185e-16    6                            1                          1                    2.3214888538619009e-05 -4.251426358606219e-22  0.096161498399855036
                    374153.6184521541                   -5.0855003070628765e-20                    2.4147644982110935e-16                          2.415273048241808e-16                             2                                               2                                                6                                               0                                              10                                   6.3597092629478877e-17             89.705713606618858                     89.722897574392917                       90                            -3.5695204777361086e-21  25.000000000000004   25.000000000000004   0                    0                    1.7788292671210822e-16    7                            2                          1                    4.6429766880022212e-05  5.5638231910455293e-21  0.096143976858897112
                    374387.13312650746                  -1.0168833490284833e-19                    2.413747614862065e-16                          2.4147644982112266e-16                             2                                               2                                                7                                               0                                              11                                   6.3548056058750938e-17             89.688466332579992                     89.722897574392917                       90                            -7.1390372604761385e-21  25.000000000000004   25.000000000000004   0                    0                    1.7783384446471604e-16    8                            3                          1                    9.2859485698180771e-05 -1.2199745202956976e-21  0.096108911906914091
                    377610.36905951088                  -1.4205266090882528e-18                    2.3995423487711826e-16                          2.4137476148641929e-16                             2                                               2                                                8                                               0                                              12                                   6.2865863548014918e-17             89.440390991330872                     89.722897574392917                       90                            -5.7111258091141112e-20  25.000000000000004   25.000000000000004   0                    0                    1.7714548258719448e-16    9                            4                          1                    0.00074286235810537343  1.2939123700105882e-22  0.095614941989092969
                    396953.89251389226                  -5.7111258091141112e-20                    2.3989712361902709e-16                          2.3995423574867536e-16                             2                                               2                                                8                                               0                                              13                                   6.2865863548014918e-17             89.440390991330872                     89.440390991330872                       90                            -1.1422251618228222e-19  50.000000000000007   50.000000000000007   0                    0                    1.7714548258719448e-16    10                           0                          2                    0.00074286235810537343  1.2939123700105882e-22  0.095614941989092969
                    397073.14012009441                  -5.252366001874753e-20                    2.3984459995900835e-16                          2.3989712361902709e-16                             3                                               3                                                9                                               0                                              15                                   6.284312957591685e-17             89.431833067497806                     89.440390991330872                       90                            -1.2095110764374703e-19  50.000000000000007   50.000000000000007   0                    0                    1.7712242149073527e-16    11                           1                          2                    0.00078662270840106031  5.101711630327462e-21  0.095598502723088424
                    397192.27285153326                  -5.2517610221219801e-20                    2.3979208234878717e-16                          2.3984459995900909e-16                             3                                               3                                                10                                              0                                              16                                   6.2820404408112219e-17             89.42326271139207                      89.440390991330872                       90                            -1.2767969241014412e-19  50.000000000000007   50.000000000000007   0                    0                    1.7709935763308505e-16    12                           2                          2                    0.00083038301515442304  2.0887442544456638e-21  0.095582056819924752
                    397430.19325530564                  -1.050170088506276e-19                    2.3968706533993652e-16                          2.3979208234879905e-16                             3                                               3                                                11                                              0                                              17                                   6.277498052258284e-17             89.406084725351732                     89.440390991330872                       90                            -1.411368398707859e-19  50.000000000000007   50.000000000000007   0                    0                    1.7705322165722447e-16    13                           3                          2                    0.00091790348511177071 -1.848446242872269e-21  0.095549145103383817
                    400712.306497465                    -1.4676209784492108e-18                    2.3821944436148731e-16                          2.3968706534012723e-16                             3                                               3                                                12                                              0                                              18                                   6.2142789324525685e-17             89.160400065459271                     89.440390991330872                       90                            -3.2953165880471103e-19  50.000000000000007   50.000000000000007   0                    0                    1.7640618669576633e-16    14                           4                          2                    0.0021431559495623765 -7.0240957229146218e-22  0.095085595220524746
# Table End
