# ODT 1.0
# Table Start
# Title: mmArchive Data Table, Tue Mar 29 2:28:35 AM Eastern Daylight Time 2011
# Columns: {Oxs_LagrangeEvolve:evolve:Max mxHxm} {Oxs_LagrangeEvolve:evolve:Delta E} {Oxs_LagrangeEvolve:evolve:Total energy} {Oxs_LagrangeEvolve:evolve:Augmented Lagrangian} {Oxs_LagrangeEvolve:evolve:Lambda cycle count} {Oxs_LagrangeEvolve:evolve:Direction cycle count} {Oxs_LagrangeEvolve:evolve:Bracket cycle count} {Oxs_LagrangeEvolve:evolve:Linemin cycle count} {Oxs_LagrangeEvolve:evolve:Energy calc count} Oxs_UniformExchange::Energy {Oxs_UniformExchange::Max Spin Ang} {Oxs_UniformExchange::Stage Max Spin Ang} {Oxs_UniformExchange::Run Max Spin Ang} Oxs_UZeeman::Energy  Oxs_UZeeman::B       Oxs_UZeeman::Bx      Oxs_UZeeman::By      Oxs_UZeeman::Bz      Oxs_Demag::Energy    Oxs_MinDriver::Iteration {Oxs_MinDriver::Stage iteration} Oxs_MinDriver::Stage Oxs_MinDriver::mx    Oxs_MinDriver::my    Oxs_MinDriver::mz   
# Units:                    A/m                                  J/s                                    J                                            {}                                              {}                                              {}                                               {}                                              {}                                             {}                                    J                              deg                                    deg                                      deg                            J                 mT                   mT                   mT                   mT                     J                       {}                           {}                         {}                 {}                   {}                   {}           
                    356024.71010257181                   2.4324030279147832e-016                    2.4324030279147832e-016                          0                                               0                                               0                                                0                                               0                                              1                                    6.447999999999999e-017             90                                     90                                       90                             0                    0                    0                    0                    0                    1.7876030279147835e-016    0                            0                          0                    0                    0                    0.096774193548387108
                    355954.22563623619                  -5.2072779144241687e-020                    2.4318823001233407e-016                          2.4324030279147832e-016                             1                                               1                                                1                                               0                                              3                                    6.4453765388840059e-017             89.991642100527628                     90                                       90                             0                    0                    0                    0                    0                    1.7873446462349403e-016    1                            1                          0                   -1.6636016185850421e-022  6.4355504391840918e-019  0.09675571723099384
                    355883.62557810207                  -5.2064524875973194e-020                    2.431361654874581e-016                          2.4318823001233501e-016                             1                                               1                                                2                                               0                                              4                                    6.4427542096408474e-017             89.983264655719722                     90                                       90                             0                    0                    0                    0                    0                    1.7870862339104965e-016    2                            2                          0                   -3.8817371100317649e-022  2.5363639966196129e-018  0.096737232970526832
                    370604.26211070968                   0                                      2.431361654874581e-016                          2.4313616548747319e-016                             1                                               1                                                2                                               0                                              5                                    6.4427542096408474e-017             89.983264655719722                     89.983264655719722                       90                             4.1142302278780063e-038  25                   25                   0                    0                    1.7870862339104965e-016    3                            0                          1                   -3.8817371100317649e-022  2.5363639966196129e-018  0.096737232970526832
                    370724.51042856183                  -5.1793526407279888e-020                    2.4308437196105082e-016                          2.431361654874581e-016                             2                                               2                                                3                                               0                                              7                                    6.4402366570367595e-017             89.975197379251838                     89.983264655719722                       90                            -1.8007381901582076e-021  25                   25                   0                    0                    1.786838061288734e-016    4                            1                          1                    2.3422713191443921e-005 -2.1199460270253482e-018  0.096719488566719219
                    370844.65293216554                  -5.1785993660974809e-020                    2.4303258596738985e-016                          2.4308437196105171e-016                             2                                               2                                                4                                               0                                              8                                    6.437720141668654e-017             89.967114121484272                     89.983264655719722                       90                            -3.6014761950829543e-021  25                   25                   0                    0                    1.7865898602689841e-016    5                            2                          1                    4.6845423973503592e-005 -5.2241527094553219e-018  0.096701736776942201
                    390188.86070808198                  -3.6014761950596144e-021                    2.4302898449119479e-016                          2.4303258596740355e-016                             2                                               2                                                4                                               0                                              9                                    6.437720141668654e-017             89.967114121484272                     89.967114121484272                       90                            -7.2029523901659085e-021  50                   50                   0                    0                    1.7865898602689841e-016    6                            0                          2                    4.6845423973503592e-005 -5.2241527094553219e-018  0.096701736776942201
                    390315.00248714455                  -5.4296928510147311e-020                    2.4297468756268464e-016                          2.4302898449119479e-016                             3                                               3                                                5                                               0                                              11                                   6.4353313780616488e-017             89.959422803946097                     89.967114121484272                       90                            -1.4044637057210774e-020  50                   50                   0                    0                    1.786354184191254e-016    7                            1                          2                    9.1341291995387415e-005  2.6499325337816852e-019  0.096684887381625506
                    390441.03447104443                  -5.4290335497107286e-020                    2.4292039722718753e-016                          2.4297468756268548e-016                             3                                               3                                                6                                               0                                              12                                   6.4329435308305681e-017             89.951718813828066                     89.967114121484272                       90                            -2.0886320796163132e-020  50                   50                   0                    0                    1.7861184823967804e-016    8                            2                          2                    0.00013583715398128978  9.8426065540462579e-019  0.096668031177302882
# Table End
