# ODT 1.0
# Table Start
# Title: mmArchive Data Table, Tue Mar 29 2:28:37 AM Eastern Daylight Time 2011
# Columns: {Oxs_ModLLG_EulerEvolve:evolve:Total energy} {Oxs_ModLLG_EulerEvolve:evolve:Energy calc count} {Oxs_ModLLG_EulerEvolve:evolve:Max dm/dt} {Oxs_ModLLG_EulerEvolve:evolve:Min |m|} {Oxs_ModLLG_EulerEvolve:evolve:Max |m|} {Oxs_ModLLG_EulerEvolve:evolve:Max ||m|-1|} Oxs_ModLLG_EulerEvolve:evolve:dE/dt {Oxs_ModLLG_EulerEvolve:evolve:Delta E} Oxs_FixedZeeman::Energy Oxs_TimeDriver::Iteration {Oxs_TimeDriver::Stage iteration} Oxs_TimeDriver::Stage Oxs_TimeDriver::mx   Oxs_TimeDriver::my   Oxs_TimeDriver::mz   {Oxs_TimeDriver::Last time step} {Oxs_TimeDriver::Simulation time}
# Units:                        J                                              {}                                          deg/ns                                     {}                                      {}                                        {}                                      J/s                                    J                               J                       {}                            {}                          {}                   {}                   {}                   {}                          s                                 s                
                       -2.0150830413943683e-020                            1                                             255.19088553414574                       0.99999999999999989                     1                                         1.1102230246251565e-016                     0                                     0                              -2.0150830413943683e-020      0                             0                           0                     0.70534561585859823  0.070534561585859828  0.70534561585859823        0                                0                         
                       -2.0150830413943683e-020                            2                                             255.19592275060489                       1                                       1                                         0                                       0                                     0                              -2.0150830413943683e-020      1                             1                           0                     0.70488852033323091  0.074964899062714932  0.70534561585859823        9.9999999999999998e-013              9.9999999999999998e-013       
                       -2.0150830413943683e-020                            3                                             255.19592294946432                       0.99999999999999989                     0.99999999999999989                       1.1102230246251565e-016                     0                                     0                              -2.0150830413943683e-020      2                             2                           0                     0.70440358790226165  0.079392364491023076  0.70534561585859823        9.9999999999999998e-013              2e-012                    
                       -2.0150830413943683e-020                            4                                             255.19088553414579                       0.99999999999999989                     1                                         1.1102230246251565e-016                     0                                     0                              -2.0150830413943683e-020      3                             0                           1                     0.70440358790226165  0.079392364491023076  0.70534561585859823        0                                2e-012                    
                       -2.0150830413943683e-020                            5                                             255.19592275060489                       1                                       1                                         0                                       0                                     0                              -2.0150830413943683e-020      4                             1                           1                     0.70389085685272024  0.083816608307651377  0.70534561585859823        9.9999999999999998e-013              3.0000000000000001e-012       
                       -2.0150830413943683e-020                            6                                             255.19592294946423                       0.99999999999999989                     0.99999999999999989                       1.1102230246251565e-016                     0                                     0                              -2.0150830413943683e-020      5                             2                           1                     0.70335032718560508  0.088237630503980882  0.70534561585859823        9.9999999999999998e-013              3.9999999999999999e-012       
                       -2.0150830413943683e-020                            7                                             255.19088553414574                       0.99999999999999989                     1                                         1.1102230246251565e-016                     0                                     0                              -2.0150830413943683e-020      6                             0                           2                     0.70335032718560508  0.088237630503980882  0.70534561585859823        0                                3.9999999999999999e-012       
                       -2.0150830413943683e-020                            8                                             255.19592275060484                       1                                       1                                         0                                       0                                     0                              -2.0150830413943683e-020      7                             1                           2                     0.70278204157753299  0.092655082025593277  0.70534561585859823        9.9999999999999998e-013              4.9999999999999997e-012       
                       -2.0150830413943683e-020                            9                                             255.19592294946426                       1.0000000000000002                      1.0000000000000002                        2.2204460492503131e-016                     0                                     0                              -2.0150830413943683e-020      8                             2                           2                     0.7021860000296114   0.09706896286388296  0.70534561585859823        9.9999999999999998e-013              6.0000000000000003e-012       
                       -2.0150830413943683e-020                            10                                            255.19088553414596                       1                                       1.0000000000000002                        2.2204460492503131e-016                     0                                     0                              -2.0150830413943683e-020      9                             0                           3                     0.7021860000296114   0.09706896286388296  0.70534561585859823        0                                6.0000000000000003e-012       
                       -2.0150830413943683e-020                            11                                            255.19592275060506                       1                                       1                                         0                                       0                                     0                              -2.0150830413943683e-020      10                            1                           3                     0.70156224960130342  0.10147892452826546  0.70534561585859823        9.9999999999999998e-013              7.0000000000000001e-012       
                       -2.0150830413943683e-020                            12                                            255.19592294946432                       1                                       1                                         0                                       0                                     0                              -2.0150830413943683e-020      11                            2                           3                     0.70091079029382508  0.10588496701014981  0.70534561585859823        9.9999999999999998e-013              7.9999999999999998e-012       
                       -2.0150830413943683e-020                            13                                            255.19088553414579                       1                                       1                                         0                                       0                                     0                              -2.0150830413943683e-020      12                            0                           4                     0.70091079029382508  0.10588496701014981  0.70534561585859823        0                                7.9999999999999998e-012       
                       -2.0150830413943683e-020                            14                                            255.19592275060489                       1                                       1                                         0                                       0                                     0                              -2.0150830413943683e-020      13                            1                           4                     0.70023167354205706  0.11028674243781598  0.70534561585859823        9.9999999999999998e-013              8.9999999999999996e-012       
                       -2.0150830413943683e-020                            15                                            255.19592294946438                       1                                       1                                         0                                       0                                     0                              -2.0150830413943683e-020      14                            2                           4                     0.69952489934732198  0.11468425080268878  0.70534561585859823        9.9999999999999998e-013              9.9999999999999994e-012       
# Table End
