# ODT 1.0
# Table Start
# Title: mmArchive Data Table, Wed Jun 11 23:40:04 EDT 2014
# Columns: {Oxs_ModLLG_EulerEvolve:evolve:Total energy} {Oxs_ModLLG_EulerEvolve:evolve:Energy calc count} {Oxs_ModLLG_EulerEvolve:evolve:Max dm/dt} {Oxs_ModLLG_EulerEvolve:evolve:Min |m|} {Oxs_ModLLG_EulerEvolve:evolve:Max |m|} {Oxs_ModLLG_EulerEvolve:evolve:Max ||m|-1|} Oxs_ModLLG_EulerEvolve:evolve:dE/dt {Oxs_ModLLG_EulerEvolve:evolve:Delta E} Oxs_FixedZeeman::Energy Oxs_TimeDriver::Iteration {Oxs_TimeDriver::Stage iteration} Oxs_TimeDriver::Stage Oxs_TimeDriver::mx   Oxs_TimeDriver::my   Oxs_TimeDriver::mz   {Oxs_TimeDriver::Last time step} {Oxs_TimeDriver::Simulation time}
# Units:                        J                                              {}                                          deg/ns                                     {}                                      {}                                        {}                                      J/s                                    J                               J                       {}                            {}                          {}                   {}                   {}                   {}                          s                                 s                
                       -2.015083041394368e-20                            1                                             255.19088553414576                       1                                       1                                         0                                       0                                     0                              -2.015083041394368e-20      0                             0                           0                     0.70534561585859823  0.070534561585859828  0.70534561585859823        0                                0                         
                       -2.015083041394368e-20                            2                                             255.19592275060489                       1                                       1                                         0                                       0                                     0                              -2.015083041394368e-20      1                             1                           0                     0.70488852033323091  0.074964899062714918  0.70534561585859823        9.9999999999999998e-13              9.9999999999999998e-13       
                       -2.015083041394368e-20                            3                                             255.19592294946426                       1                                       1                                         0                                       0                                     0                              -2.015083041394368e-20      2                             2                           0                     0.70440358790226165  0.079392364491023076  0.70534561585859823        9.9999999999999998e-13              2e-12                     
                       -2.015083041394368e-20                            4                                             255.19592294947211                       1                                       1                                         0                                       0                                     0                              -2.015083041394368e-20      3                             3                           0                     0.70389084645745348  0.083816695606927644  0.70534561585859823        9.9999999999999998e-13              3.0000000000000001e-12       
                       -2.015083041394368e-20                            5                                             255.19592294947211                       1                                       1                                         0                                       0                                     0                              -2.015083041394368e-20      4                             4                           0                     0.70335031624159405  0.088237717739662283  0.70534561585859823        9.9999999999999998e-13              3.9999999999999999e-12       
                       -2.015083041394368e-20                            6                                             255.19088553414576                       1                                       1                                         0                                       0                                     0                              -2.015083041394368e-20      5                             0                           1                     0.70335031624159405  0.088237717739662283  0.70534561585859823        0                                3.9999999999999999e-12       
                       -2.015083041394368e-20                            7                                             255.19592275060489                       1                                       1                                         0                                       0                                     0                              -2.015083041394368e-20      6                             1                           1                     0.70278203008563089  0.092655169190790879  0.70534561585859823        9.9999999999999998e-13              4.9999999999999997e-12       
                       -2.015083041394368e-20                            8                                             255.19592294946426                       1                                       1                                         0                                       0                                     0                              -2.015083041394368e-20      7                             2                           1                     0.70218598799026066  0.097069049955154169  0.70534561585859823        9.9999999999999998e-13              6.0000000000000003e-12       
                       -2.015083041394368e-20                            9                                             255.19592294947211                       1                                       1                                         0                                       0                                     0                              -2.015083041394368e-20      8                             3                           1                     0.70156222442916438  0.10147909855264534  0.70534561585859823        9.9999999999999998e-13              7.0000000000000001e-12       
                       -2.015083041394368e-20                            10                                            255.19592294947211                       1                                       1                                         5.4210108624275222e-20                     0                                     0                              -2.015083041394368e-20      9                             4                           1                     0.70091076402823704  0.10588514087636515  0.70534561585859823        9.9999999999999998e-13              7.9999999999999998e-12       
                       -2.015083041394368e-20                            11                                            255.19088553414576                       1                                       1                                         5.4210108624275222e-20                     0                                     0                              -2.015083041394368e-20      10                            0                           2                     0.70091076402823704  0.10588514087636515  0.70534561585859823        0                                7.9999999999999998e-12       
                       -2.015083041394368e-20                            12                                            255.19592275060489                       1                                       1                                         0                                       0                                     0                              -2.015083041394368e-20      11                            1                           2                     0.70023164618457534  0.11028691613557111  0.70534561585859823        9.9999999999999998e-13              8.9999999999999996e-12       
                       -2.015083041394368e-20                            13                                            255.19592294946426                       1                                       1                                         0                                       0                                     0                              -2.015083041394368e-20      12                            2                           2                     0.69952487089900517  0.1146844243251231   0.70534561585859823        9.9999999999999998e-13              9.9999999999999994e-12       
                       -2.015083041394368e-20                            14                                            255.19592294947211                       1                                       1                                         1.0842021724855044e-19                     0                                     0                              -2.015083041394368e-20      13                            3                           2                     0.69879047920535142  0.11907740491382114  0.70534561585859823        9.9999999999999998e-13              1.0999999999999999e-11       
                       -2.015083041394368e-20                            15                                            255.19592294947211                       1                                       1                                         1.0842021724855044e-19                     0                                     0                              -2.015083041394368e-20      14                            4                           2                     0.69802850009706197  0.12346568446860307  0.70534561585859823        9.9999999999999998e-13              1.2000000000000001e-11       
                       -2.015083041394368e-20                            16                                            255.19088553414576                       1                                       1                                         1.0842021724855044e-19                     0                                     0                              -2.015083041394368e-20      15                            0                           3                     0.69802850009706197  0.12346568446860307  0.70534561585859823        0                                1.2000000000000001e-11       
                       -2.015083041394368e-20                            17                                            255.19592275060489                       1                                       1                                         0                                       0                                     0                              -2.015083041394368e-20      16                            1                           3                     0.69723897951249858  0.12784900327114163  0.70534561585859823        9.9999999999999998e-13              1.3e-11                   
                       -2.015083041394368e-20                            18                                            255.19592294946426                       1                                       1                                         0                                       0                                     0                              -2.015083041394368e-20      17                            2                           3                     0.69642191745261606  0.1322273613163191   0.70534561585859823        9.9999999999999998e-13              1.4e-11                   
                       -2.015083041394368e-20                            19                                            255.19592294947211                       1                                       1                                         0                                       0                                     0                              -2.015083041394368e-20      18                            3                           3                     0.6955773614854649   0.13660049918639988  0.70534561585859823        9.9999999999999998e-13              1.5e-11                   
                       -2.015083041394368e-20                            20                                            255.19592294947211                       1                                       1                                         1.0842021724855044e-19                     0                                     0                              -2.015083041394368e-20      19                            4                           3                     0.69470534495373326  0.1409682442317034   0.70534561585859823        9.9999999999999998e-13              1.6e-11                   
                       -2.015083041394368e-20                            21                                            255.19088553414576                       1                                       1                                         1.0842021724855044e-19                     0                                     0                              -2.015083041394368e-20      20                            0                           4                     0.69470534495373326  0.1409682442317034   0.70534561585859823        0                                1.6e-11                   
                       -2.015083041394368e-20                            22                                            255.19592275060489                       1                                       1                                         1.0842021724855044e-19                     0                                     0                              -2.015083041394368e-20      21                            1                           4                     0.6938059203080319   0.14533033797036177  0.70534561585859823        9.9999999999999998e-13              1.6999999999999999e-11       
                       -2.015083041394368e-20                            23                                            255.19592294946426                       1                                       1                                         5.4210108624275222e-20                     0                                     0                              -2.015083041394368e-20      22                            2                           4                     0.69287908754944416  0.14968678039728286  0.70534561585859823        9.9999999999999998e-13              1.7999999999999999e-11       
                       -2.015083041394368e-20                            24                                            255.19592294947211                       1                                       1                                         0                                       0                                     0                              -2.015083041394368e-20      23                            3                           4                     0.69192490075020108  0.15403731337204993  0.70534561585859823        9.9999999999999998e-13              1.8999999999999999e-11       
                       -2.015083041394368e-20                            25                                            255.19592294947211                       1                                       1                                         0                                       0                                     0                              -2.015083041394368e-20      24                            4                           4                     0.69094339758117085  0.15838176513741345  0.70534561585859823        9.9999999999999998e-13              1.9999999999999999e-11       
# Table End
