# ODT 1.0
# Table Start
# Title: mmArchive Data Table, Wed Jun 11 15:42:39 EDT 2014
# Columns: {Oxs_CGEvolve:evolve:Max mxHxm} {Oxs_CGEvolve:evolve:Total energy} {Oxs_CGEvolve:evolve:Delta E} {Oxs_CGEvolve:evolve:Bracket count} {Oxs_CGEvolve:evolve:Line min count} {Oxs_CGEvolve:evolve:Conjugate cycle count} {Oxs_CGEvolve:evolve:Cycle count} {Oxs_CGEvolve:evolve:Cycle sub count} {Oxs_CGEvolve:evolve:Energy calc count} Oxs_UniaxialAnisotropy:hard:Energy Oxs_UniaxialAnisotropy:easy:Energy Oxs_UniformExchange::Energy {Oxs_UniformExchange::Max Spin Ang} {Oxs_UniformExchange::Stage Max Spin Ang} {Oxs_UniformExchange::Run Max Spin Ang} Oxs_UZeeman::Energy  Oxs_UZeeman::B       Oxs_UZeeman::Bx      Oxs_UZeeman::By      Oxs_UZeeman::Bz      Oxs_MinDriver::Iteration {Oxs_MinDriver::Stage iteration} Oxs_MinDriver::Stage Oxs_MinDriver::mx    Oxs_MinDriver::my    Oxs_MinDriver::mz   
# Units:                 A/m                               J                                J                               {}                                   {}                                      {}                                     {}                                  {}                                     {}                                    J                                  J                               J                              deg                                    deg                                      deg                            J                 mT                   mT                   mT                   mT                        {}                           {}                         {}                 {}                   {}                   {}           
                 1169401.9849383368                2.0168646289801654e-16             2.0168646289801654e-16              0                                    0                                       1                                      1                                   0                                      1                                     2.5607653626983676e-17                6.20308081191492e-17            1.1404800115188366e-16             89.999942710006778                     89.999942710006778                       89.999942710006778             0                    0                    0                    0                    0                      0                            0                          0                    0.20798949679561138  0.001999899007649901  0.00099994950382505327
                 1168368.1755765476                2.0148555833778473e-16            -2.0090456023179654e-19              1                                    0                                       1                                      1                                   0                                      2                                     2.5607680907034143e-17                6.2030762743604147e-17            1.1384711468714646e-16             89.899979860703795                     89.999942710006778                       89.999942710006778             0                    0                    0                    0                    0                      1                            1                          0                    0.20800019960053598  0.001999945885249964  0.00099999187948870754
                 901146.1816910425                 1.658664315764615e-16            -3.5619126761323236e-17              2                                    0                                       1                                      1                                   0                                      3                                     2.5612969771390923e-17                6.2021630336966568e-17            7.8231831468104011e-17             70.007225513519316                     89.999942710006778                       89.999942710006778             0                    0                    0                    0                    0                      2                            2                          0                    0.20992787230657428  0.0020074989786682219  0.0010080651100322475
                 566305.3727473889                 1.3997812979161332e-16            -2.5888301784848175e-17              3                                    0                                       2                                      2                                   0                                      4                                     2.5616455378567962e-17                6.2010049857504258e-17            5.2351624555541116e-17             50.84689187292178                      89.999942710006778                       89.999942710006778             0                    0                    0                    0                    0                      3                            3                          0                    0.21180544739921253  0.0020084881638588524  0.0010172288758360365
                 551774.53418668092                1.3922204939436976e-16            -7.5608039724355747e-19              4                                    0                                       2                                      2                                   0                                      5                                     2.5616536825968734e-17                6.2009606816590168e-17            5.159590575181087e-17             50.130310942305826                     89.999942710006778                       89.999942710006778             0                    0                    0                    0                    0                      4                            4                          0                    0.21186716040402043  0.0020085473590363669  0.0010175585549262428
                 570376.5644592786                 7.2774209087151056e-17            -6.6447840307218719e-17              4                                    0                                       3                                      3                                   0                                      6                                     2.5616536825968734e-17                6.2009606816590168e-17            5.159590575181087e-17             50.130310942305826                     50.130310942305826                       89.999942710006778            -6.6447840307218719e-17  50.002499937503131   50.000000000000007   0.5                  0                      5                            0                          1                    0.21186716040402043  0.0020085473590363669  0.0010175585549262428
                 328591.30921147438                5.4440930439612611e-17            -1.8333278647538446e-17              5                                    0                                       3                                      3                                   0                                      7                                     2.5663657823213401e-17                6.1995321165938465e-17            3.6210544446146103e-17             34.689870769724742                     50.130310942305826                       89.999942710006778            -6.9428592995685355e-17  50.002499937503131   50.000000000000007   0.5                  0                      6                            1                          1                    0.22137210441781238  0.0020092634755832627  0.0010258715832559607
                 323623.59011551505                5.0991786956262056e-17            -3.4491434833505505e-18              6                                    0                                       3                                      3                                   0                                      8                                     2.5680273984546216e-17                6.1991628001803728e-17            3.3513742931563638e-17             30.68468727137839                      50.130310942305826                       89.999942710006778            -7.0193857961651517e-17  50.002499937503131   50.000000000000007   0.5                  0                      7                            2                          1                    0.22381235343612985  0.0020101798728607229  0.0010279167926587889
                 190009.52713698996                3.8375007862030277e-17            -1.2616779094231779e-17              7                                    0                                       4                                      4                                   0                                      9                                     2.5811116373981632e-17                6.1969953969228052e-17            2.5160124914704665e-17             23.025029660550921                     50.130310942305826                       89.999942710006778            -7.456618739588406e-17  50.002499937503131   50.000000000000007   0.5                  0                      8                            3                          1                    0.23775464383658473  0.0020188420698383125  0.0010389255594652599
                 191559.25845389292                3.433279800318698e-17            -4.0422098588432993e-18              8                                    0                                       4                                      4                                   0                                      10                                    2.5881110483194442e-17                6.196137306118962e-17            2.2817199996709266e-17             19.900938601234369                     50.130310942305826                       89.999942710006778            -7.6326885537906335e-17  50.002499937503131   50.000000000000007   0.5                  0                      9                            4                          1                    0.24336906872064298  0.0020234652782568328  0.0010431882542403731
                 231087.44912763484               -4.1994087534719361e-17            -7.6326885537906335e-17              8                                    0                                       5                                      5                                   0                                      11                                    2.5881110483194442e-17                6.196137306118962e-17            2.2817199996709266e-17             19.900938601234369                     19.900938601234369                       89.999942710006778            -1.5265377107581267e-16  100.00499987500626   100.00000000000001   1                    0                      10                           0                          2                    0.24336906872064298  0.0020234652782568328  0.0010431882542403731
                 160320.32414153439               -7.5097323259679897e-17            -3.3103235724960541e-17              9                                    0                                       5                                      5                                   0                                      12                                    2.6831863859913334e-17                6.1937159364394685e-17            1.6688732779852871e-17             15.547075775976312                     19.900938601234369                       89.999942710006778            -1.8055507926384079e-16  100.00499987500626   100.00000000000001   1                    0                      11                           1                          2                    0.2878542694652283   0.0020538034517682351  0.0010505110513493187
                 161210.67482978138               -7.8817226702772237e-17            -3.7199034430923304e-18              10                                   0                                       5                                      5                                   0                                      13                                    2.6987205333558836e-17                6.1935092035679476e-17            1.6137805568775544e-17             15.02470814809188                      19.900938601234369                       89.999942710006778            -1.838773296407861e-16  100.00499987500626   100.00000000000001   1                    0                      12                           2                          2                    0.29315118403904705  0.0020578781083772156  0.0010511749577042596
                 211576.79802788311               -1.1723207326280471e-16            -3.8414846560032475e-17              11                                   0                                       6                                      6                                   0                                      14                                    2.9319769482024019e-17                6.1921944892966254e-17            1.2379897795160801e-17             12.295231308426361                     19.900938601234369                       89.999942710006778            -2.2085368543295576e-16  100.00499987500626   100.00000000000001   1                    0                      13                           3                          2                    0.35210523151309175  0.0021180210370892213  0.001053903449423917
                 226853.90284117026               -1.2238902695786543e-16            -5.1569536950607177e-18              12                                   0                                       6                                      6                                   0                                      15                                    2.9748225071314051e-17                6.1921922663689207e-17            1.2134168170780764e-17             12.435064815834714                     19.900938601234369                       89.999942710006778            -2.2619334286364942e-16  100.00499987500626   100.00000000000001   1                    0                      14                           4                          2                    0.36061861806087464  0.0021278086525445103  0.0010538761638498513
                 180701.74891114066                1.0379764309784964e-16             2.2618667005571507e-16              12                                   0                                       7                                      7                                   0                                      16                                    2.9748225071314051e-17                6.1921922663689207e-17            1.2134168170780764e-17             12.435064815834714                     12.435064815834714                       89.999942710006778            -6.6728079343800129e-21  0.5                  0                    0.5                  0                      15                           0                          3                    0.36061861806087464  0.0021278086525445103  0.0010538761638498513
                 68016.858284810296                1.0249576196587704e-16            -1.301881131972603e-18              13                                   1                                       7                                      7                                   0                                      18                                    2.9682024668935158e-17                6.1901551254127798e-17            1.0918984548958786e-17             11.043172104576531                     12.435064815834714                       89.999942710006778            -6.7985061447113207e-21  0.5                  0                    0.5                  0                      16                           1                          3                    0.35970269658608411  0.0021678909900223857  0.0010630708350256137
                 61495.8096855041                  1.0175587395398813e-16            -7.3988801188890199e-19              14                                   1                                       7                                      8                                   1                                      19                                    2.9574120138231495e-17                6.1869234074476595e-17            1.0319512864850388e-17             10.173767521355142                     12.435064815834714                       89.999942710006778            -6.9931235703437606e-21  0.5                  0                    0.5                  0                      17                           2                          3                    0.35820722248562364  0.0022299501180946158  0.0010774121935740752
                 158379.09086874043                1.0029232793983192e-16            -1.4635460141562057e-18              15                                   1                                       7                                      8                                   1                                      20                                    2.8957676650132721e-17                6.1692501262928361e-17            9.6501659940161073e-18             12.558118747127795                     12.558118747127795                       89.999942710006778            -8.0159672452681604e-21  0.5                  0                    0.5                  0                      18                           3                          3                    0.34969716614963042  0.0025561120042310722  0.001152645807992476
                 137744.63890222349                1.0024924352908663e-16            -4.3084410745295988e-20              15                                   2                                       7                                      8                                   1                                      21                                    2.9050835552732245e-17                6.1718616663744169e-17            9.4876605409233374e-18             12.212967228237217                     12.558118747127795                       89.999942710006778            -7.8692283131271861e-21  0.5                  0                    0.5                  0                      19                           4                          3                    0.35098849536743099  0.0025093202529100442  0.0011418542665616288
                 184616.88487123963                3.2039709705185248e-16             2.2014785352276586e-16              15                                   2                                       8                                      9                                   0                                      22                                    2.9050835552732245e-17                6.1718616663744169e-17            9.4876605409233374e-18             12.212967228237217                     12.212967228237217                       89.999942710006778             2.2013998429445273e-16  100.00000000000001  -100.00000000000001   0                    0                      20                           0                          4                    0.35098849536743099  0.0025093202529100442  0.0011418542665616288
                 337564.46506425826                2.8241782458319741e-16            -3.7979272468655079e-17              16                                   2                                       8                                      9                                   0                                      23                                    2.6379668863150006e-17                6.1588649749356065e-17            1.3562461164963741e-17             12.36249958124284                      12.36249958124284                        89.999942710006778             1.808870448057276e-16  100.00000000000001  -100.00000000000001   0                    0                      21                           1                          4                    0.28840408929484623  0.0026967616852631238  0.0012073821684897307
                 292715.13176603825                2.593344498880316e-16            -2.308337469516582e-17              17                                   2                                       9                                      10                                  0                                      24                                    2.5399677523044266e-17                6.1526247327903999e-17            1.2803011275879836e-17             14.903001986795687                     14.903001986795687                       89.999942710006778             1.5960551376120349e-16  100.00000000000001  -100.00000000000001   0                    0                      22                           2                          4                    0.25447307678763303  0.0028017965125990865  0.0012440701932081688
                 402005.60013442487                2.3930698662022523e-16            -2.0027463267806371e-17              18                                   2                                       10                                     11                                  0                                      25                                    2.4683716739407048e-17                6.1462935006646763e-17            1.8000934352239071e-17             14.983962027007944                     14.983962027007944                       89.999942710006778             1.3515940052193234e-16  100.00000000000001  -100.00000000000001   0                    0                      23                           3                          4                    0.21549649317910155  0.0029195576262475357  0.0012859719075207941
                 361393.93492418953                2.3918420632419444e-16            -1.2278029603080164e-19              18                                   3                                       10                                     11                                  0                                      26                                    2.4718068434176693e-17                6.1467072265767649e-17            1.6052583004025253e-17             14.073014652276852                     14.983962027007944                       89.999942710006778             1.3694648262022482e-16  100.00000000000001  -100.00000000000001   0                    0                      24                           4                          4                    0.21834579499398107  0.0029131990379629258  0.0012831298143641337
                 300227.07827847224                1.0223772370396959e-16            -1.3694648262022482e-16              18                                   3                                       11                                     12                                  0                                      27                                    2.4718068434176693e-17                6.1467072265767649e-17            1.6052583004025253e-17             14.073014652276852                     14.073014652276852                       89.999942710006778             0                    0                    0                    0                    0                      25                           0                          5                    0.21834579499398107  0.0029131990379629258  0.0012831298143641337
                 53665.162818903562                9.5323142652378088e-17            -6.9145810515915088e-18              19                                   4                                       11                                     12                                  0                                      29                                    2.4673688614181227e-17                6.1448217145545597e-17            9.2012368926512584e-18             8.561075391337539                      14.073014652276852                       89.999942710006778             0                    0                    0                    0                    0                      26                           1                          5                    0.21852186359676909  0.0029350964809134435  0.0012932495866346356
                 53964.284627702036                9.5323100536810279e-17            -4.2115567798716745e-23              19                                   6                                       11                                     12                                  0                                      31                                    2.4673605045220385e-17                6.1448171515403958e-17            9.201323976185939e-18             8.5692920447866285                     14.073014652276852                       89.999942710006778             0                    0                    0                    0                    0                      27                           2                          5                    0.21852203364819353  0.0029351221375730121  0.0012932731408658576
                 32575.701275442188                9.5050058807362687e-17            -2.7304172944760211e-19              20                                   6                                       11                                     13                                  1                                      32                                    2.4628601610600804e-17                6.1424447406238848e-17            8.9970097905230253e-18             7.9076229262052022                     14.073014652276852                       89.999942710006778             0                    0                    0                    0                    0                      28                           3                          5                    0.21860220074442038  0.0029504256683322749  0.0013056037395810668
                 79760.729618894547                9.4941446429486163e-17            -1.086123778765173e-19              21                                   6                                       11                                     13                                  1                                      33                                    2.4481245118442014e-17                6.134862760164134e-17            9.111573709402816e-18             9.2770062317846556                     14.073014652276852                       89.999942710006778             0                    0                    0                    0                    0                      29                           4                          5                    0.21880216932695426  0.0029992250426204158  0.0013444856561732276
                 91244.59034041116                 9.4471167942803314e-17            -4.7027848668284724e-19              21                                   6                                       12                                     14                                  0                                      34                                    2.4481245118442014e-17                6.134862760164134e-17            9.111573709402816e-18             9.2770062317846556                     9.2770062317846556                       89.999942710006778            -4.7027848668284714e-19  25.000000000000004   0                    25.000000000000004   0                      30                           0                          6                    0.21880216932695426  0.0029992250426204158  0.0013444856561732276
                 64438.987898300918                9.3498114045216893e-17            -9.7305389758641953e-19              22                                   7                                       12                                     14                                  0                                      36                                    2.4410583680516735e-17                6.1315790746503916e-17            8.4733915291530699e-18             7.9975081463777382                     9.2770062317846556                       89.999942710006778            -7.0165191095681844e-19  25.000000000000004   0                    25.000000000000004   0                      31                           1                          6                    0.21882431644627795  0.0044748208606937264  0.0011717563419576234
                 70253.258171959038                9.2679178243380372e-17            -8.1893580183652339e-19              23                                   7                                       12                                     15                                  1                                      37                                    2.4282888719626804e-17                6.1258920739898706e-17            8.2342913630530548e-18             7.8842747345325108                     9.2770062317846556                       89.999942710006778            -1.0969225791981941e-18  25.000000000000004   0                    25.000000000000004   0                      32                           2                          6                    0.21878676979808592  0.0069956797142740508  0.00086693581172512515
                 155662.19955739338                9.0605567090145521e-17            -2.0736111532348491e-18              24                                   7                                       12                                     15                                  1                                      38                                    2.3657253767227832e-17                6.1015706807316412e-17            8.6329446980307116e-18             8.8820284415655966                     9.2770062317846556                       89.999942710006778            -2.7003381824294278e-18  25.000000000000004   0                    25.000000000000004   0                      33                           3                          6                    0.21803788825023745  0.017221544530799764 -0.00040089429905971048