# ODT 1.0
# Table Start
# Title: mmArchive Data Table, Wed Aug 17 23:55:55 EDT 2011
# Columns: {Oxs_CGEvolve:evolve:Max mxHxm} {Oxs_CGEvolve:evolve:Total energy} {Oxs_CGEvolve:evolve:Delta E} {Oxs_CGEvolve:evolve:Bracket count} {Oxs_CGEvolve:evolve:Line min count} {Oxs_CGEvolve:evolve:Conjugate cycle count} {Oxs_CGEvolve:evolve:Cycle count} {Oxs_CGEvolve:evolve:Cycle sub count} {Oxs_CGEvolve:evolve:Energy calc count} Oxs_UniaxialAnisotropy:hard:Energy Oxs_UniaxialAnisotropy:easy:Energy Oxs_UniformExchange::Energy {Oxs_UniformExchange::Max Spin Ang} {Oxs_UniformExchange::Stage Max Spin Ang} {Oxs_UniformExchange::Run Max Spin Ang} Oxs_UZeeman::Energy  Oxs_UZeeman::B       Oxs_UZeeman::Bx      Oxs_UZeeman::By      Oxs_UZeeman::Bz      Oxs_MinDriver::Iteration {Oxs_MinDriver::Stage iteration} Oxs_MinDriver::Stage Oxs_MinDriver::mx    Oxs_MinDriver::my    Oxs_MinDriver::mz   
# Units:                 A/m                               J                                J                               {}                                   {}                                      {}                                     {}                                  {}                                     {}                                    J                                  J                               J                              deg                                    deg                                      deg                            J                 mT                   mT                   mT                   mT                        {}                           {}                         {}                 {}                   {}                   {}           
                 1169401.9849383365                2.0168646289801657e-16             2.0168646289801657e-16              0                                    0                                       1                                      1                                   1                                      1                                     2.560765362698368e-17                6.20308081191492e-17            1.1404800115188366e-16             89.999942710006792                     89.999942710006792                       89.999942710006792             0                    0                    0                    0                    0                      0                            0                          0                    0.20798949679592404  0.0019998990070584526  0.00099994950382653516
                 1168368.1755765472                2.0148555833778473e-16            -2.0090456023183078e-19              1                                    0                                       1                                      1                                   1                                      2                                     2.560768090703414e-17                6.2030762743604135e-17            1.1384711468714644e-16             89.899979860703795                     89.999942710006792                       89.999942710006792             0                    0                    0                    0                    0                      1                            1                          0                    0.20800019960130481  0.0019999458842394394  0.00099999187948563448
                 1161032.0312169271                2.00084312475412e-16            -1.4012458623727386e-18              2                                    0                                       1                                      1                                   1                                      3                                     2.5607871818329585e-17                6.2030445100338239e-17            1.1244599555674417e-16             89.200252695469104                     89.999942710006792                       89.999942710006792             0                    0                    0                    0                    0                      2                            2                          0                    0.20807484806318477  0.0020002714132466219  0.0010002879720196465
                 1200254.2124465227                1.3482576727148843e-16            -6.5258545203923566e-17              2                                    0                                       2                                      2                                   2                                      4                                     2.5607871818329585e-17                6.2030445100338239e-17            1.1244599555674417e-16             89.200252695469104                     89.200252695469104                       89.999942710006792            -6.5258545203923591e-17  50.002499937503124   50                   0.5                  0                      3                            0                          1                    0.20807484806318477  0.0020002714132466219  0.0010002879720196465
                 1199215.4597578186                1.3461908265880892e-16            -2.0668461267951397e-19              3                                    0                                       2                                      2                                   0                                      5                                     2.5607958408439279e-17                6.2030402045688221e-17            1.1224976986206278e-16             89.101902920625733                     89.200252695469104                       89.999942710006792            -6.526904765738136e-17  50.002499937503124   50                   0.5                  0                      4                            1                          1                    0.20810833759500125  0.0020003149321168234  0.0010003230887707046
                 1191847.3063053773                1.3317720980051466e-16            -1.441872858294251e-18              4                                    0                                       2                                      2                                   0                                      6                                     2.56085735724405e-17                6.2030100824828748e-17            1.1088101993457161e-16             88.413466677939766                     89.200252695469104                       89.999942710006792            -6.5342484531326188e-17  50.002499937503124   50                   0.5                  0                      5                            2                          1                    0.20834250827707365  0.0020006171913757673  0.0010005683643809732
                 1231634.1026664444                6.7834725269188477e-17            -6.5342484531326188e-17              4                                    0                                       3                                      3                                   1                                      7                                     2.56085735724405e-17                6.2030100824828748e-17            1.1088101993457161e-16             88.413466677939766                     88.413466677939766                       89.999942710006792            -1.3068496906265238e-16  100.00499987500625   100                  1                    0                      6                            0                          2                    0.20834250827707365  0.0020006171913757673  0.0010005683643809732
                 1230606.4637693649                6.760852873393302e-17            -2.2619653525545627e-19              5                                    0                                       3                                      3                                   0                                      8                                     2.5608721056775283e-17                6.203006008190714e-17            1.1068927993006626e-16             88.31670463507055                      88.413466677939766                       89.999942710006792            -1.3071953233481567e-16  100.00499987500625   100                  1                    0                      7                            1                          2                    0.20839761513169763  0.0020006575730052933  0.0010005965355333294
                 1223318.5267175189                6.6029926843704333e-17            -1.5786018902286869e-18              6                                    0                                       3                                      3                                   0                                      9                                     2.5609779801327465e-17                6.2029775377816818e-17            1.093516949218779e-16             87.639381964680766                     88.413466677939766                       89.999942710006792            -1.3096132325731785e-16  100.00499987500625   100                  1                    0                      8                            2                          2                    0.20878312081240646  0.0020009381255196366  0.00100079315347742
                 1144994.0628278735                1.969849751590589e-16             1.3095504831535457e-16              6                                    0                                       4                                      4                                   1                                      10                                    2.5609779801327465e-17                6.2029775377816818e-17            1.093516949218779e-16             87.639381964680766                     87.639381964680766                       89.999942710006792            -6.2749419633080015e-21  0.5                  0                    0.5                  0                      9                            0                          3                    0.20878312081240646  0.0020009381255196366  0.00100079315347742
                 1143897.726776208                 1.9678839609016892e-16            -1.9657906888997834e-19              7                                    0                                       4                                      4                                   0                                      11                                    2.5609809205774051e-17                6.2029729046529418e-17            1.0915513309971125e-16             87.539447901023252                     87.639381964680766                       89.999942710006792            -6.2752618457768303e-21  0.5                  0                    0.5                  0                      10                           1                          3                    0.20879379144631205  0.0020010401291734848  0.001000835956128891
                 1136163.2334643304                1.9541762876223739e-16            -1.3707673279315348e-18              8                                    0                                       4                                      4                                   0                                      12                                    2.5610014762573309e-17                6.2029404708140844e-17            1.0778448678505491e-16             86.839922224307571                     87.639381964680766                       89.999942710006792            -6.2774935316625194e-21  0.5                  0                    0.5                  0                      11                           2                          3                    0.2088682091166543   0.0020017517639601312  0.0010011350272120013
                 1138690.0457850867                3.264260470141587e-16             1.3100841825192131e-16              8                                    0                                       5                                      5                                   1                                      13                                    2.5610014762573309e-17                6.2029404708140844e-17            1.0778448678505491e-16             86.839922224307571                     86.839922224307571                       89.999942710006792             1.3100214075838964e-16  100                 -100                  0                    0                      12                           0                          4                    0.2088682091166543   0.0020017517639601312  0.0010011350272120013
                 1137648.0734683                   3.2621414658326471e-16            -2.1190043089398064e-19              9                                    0                                       5                                      5                                   0                                      14                                    2.560990543527181e-17                6.2029355427076906e-17            1.0759666767447845e-16             86.743620380292469                     86.839922224307571                       89.999942710006792             1.309782180464376e-16  100                 -100                  0                    0                      13                           1                          4                    0.20883006703868193  0.0020019132355153044  0.0010011906977398846
                 1130262.7869436394                3.2473597125567523e-16            -1.4781753275894887e-18              10                                   0                                       5                                      5                                   0                                      15                                    2.5609151323524367e-17                6.2029010658738089e-17            1.062872242843608e-16             86.069518948018668                     86.839922224307571                       89.999942710006792             1.3081058498905203e-16  100                 -100                  0                    0                      14                           2                          4                    0.20856279494423766  0.0020030411899658544  0.0010015797966781213
                 1127881.3387693348                1.9392538626662324e-16            -1.3081058498905198e-16              10                                   0                                       6                                      6                                   1                                      16                                    2.5609151323524367e-17                6.2029010658738089e-17            1.062872242843608e-16             86.069518948018668                     86.069518948018668                       89.999942710006792             0                    0                    0                    0                    0                      15                           0                          5                    0.20856279494423766  0.0020030411899658544  0.0010015797966781213
                 1126783.7547401295                1.9373190016347187e-16            -1.9348610315137076e-19              11                                   0                                       6                                      6                                   0                                      17                                    2.5609179642723153e-17                6.2028963573355304e-17            1.060937569473934e-16             85.969617859743067                     86.069518948018668                       89.999942710006792             0                    0                    0                    0                    0                      16                           1                          5                    0.20857345931081664  0.002003078926944772  0.0010016229673101072
                 1119002.3193166149                1.9238290969431894e-16            -1.348990469152932e-18              12                                   0                                       6                                      6                                   0                                      18                                    2.5609377461888052e-17                6.2028633953118155e-17            1.0474489827931274e-16             85.270322998106465                     86.069518948018668                       89.999942710006792             0                    0                    0                    0                    0                      17                           2                          5                    0.20864782970612833  0.0020033408539923622  0.0010019246071872108
                 1137423.4396008803                1.9206878584838133e-16            -3.1412384593761104e-19              12                                   0                                       7                                      7                                   1                                      19                                    2.5609377461888052e-17                6.2028633953118155e-17            1.0474489827931274e-16             85.270322998106465                     85.270322998106465                       89.999942710006792            -3.1412384593761721e-19  25                   0                    25                   0                      18                           0                          6                    0.20864782970612833  0.0020033408539923622  0.0010019246071872108
                 1136283.1938076811                1.9187947265564883e-16            -1.893131927324942e-19              13                                   0                                       7                                      7                                   0                                      20                                    2.5609397514376265e-17                6.2028587325640615e-17            1.0455609604888716e-16             85.172889396358428                     85.270322998106465                       89.999942710006792            -3.1460823325523558e-19  25                   0                    25                   0                      19                           1                          6                    0.20865828309140788  0.0020064300591316484  0.0010019658545961472
                 1128204.9482930959                1.9055958341040784e-16            -1.3198892452409944e-18              14                                   0                                       7                                      7                                   0                                      21                                    2.5609537070350342e-17                6.2028260903054807e-17            1.0323978405147238e-16             84.49086602086085                      85.270322998106465                       89.999942710006792            -3.1799861446970403e-19  25                   0                    25                   0                      20                           2                          6                    0.20873118256907716  0.0020280523876397283  0.0010022540450501266
# Table End
