# ODT 1.0
# Table Start
# Title: mmArchive Data Table, Thu Dec 15 01:44:24 EST 2011
# Columns: {Oxs_EulerEvolve:evolver:Total energy} {Oxs_EulerEvolve:evolver:Energy calc count} {Oxs_EulerEvolve:evolver:Max dm/dt} Oxs_EulerEvolve:evolver:dE/dt {Oxs_EulerEvolve:evolver:Delta E} Oxs_Exchange6Ngbr:DyFeYFe:Energy {Oxs_Exchange6Ngbr:DyFeYFe:Max Spin Ang} {Oxs_Exchange6Ngbr:DyFeYFe:Stage Max Spin Ang} {Oxs_Exchange6Ngbr:DyFeYFe:Run Max Spin Ang} Southampton_UniaxialAnisotropy4:xAnis:Energy Southampton_UniaxialAnisotropy4:yAnis:Energy Oxs_UniaxialAnisotropy:neg:Energy Oxs_UZeeman::Energy  Oxs_UZeeman::B       Oxs_UZeeman::Bx      Oxs_UZeeman::By      Oxs_UZeeman::Bz      Oxs_Demag::Energy    Oxs_TimeDriver::Iteration {Oxs_TimeDriver::Stage iteration} Oxs_TimeDriver::Stage Oxs_TimeDriver::mx   Oxs_TimeDriver::my   Oxs_TimeDriver::mz   {Oxs_TimeDriver::Last time step} {Oxs_TimeDriver::Simulation time}
# Units:                     J                                        {}                                    deg/ns                             J/s                              J                                J                                   deg                                         deg                                           deg                                           J                                            J                                       J                          J                 mT                   mT                   mT                   mT                     J                       {}                            {}                          {}                   {}                   {}                   {}                          s                                 s                
                    -9.4625521957088433e-20                      1                                       90.166768344549098              -3.3305299310666835e-13             0                                 0                                    0                                           0                                             0                                            6.2999999999999985e-21                          0                                      0                          -1.1830810000000005e-19  2500.0199999200008   2500                 10                   0                    1.7382578042911612e-20    0                             0                           0                     1                    0                    0                          0                                0                         
                    -9.4625557133900444e-20                      2                                       88.302197643502353              -3.1927924650850492e-13            -3.5176812003832329e-26               0                                    0                                           0                                             0                                            6.2999998080910334e-21                          7.6763587447898025e-29                    4.8738785681205086e-28        -1.1830813513550782e-19  2500.0199999200008   2500                 10                   0                    1.73825776293649e-20    1                             1                           0                     0.99999998476912932  7.8053495822740944e-05 -0.00015610699164548189        1.1090560506491234e-13              1.1090560506491234e-13       
                    -9.4625598745544713e-20                      3                                       86.160545898091897              -3.0278104970720522e-13            -4.1611644275486472e-26               3.1411597631851856e-32                  5.8755508875884169e-05                         5.8755508875884169e-05                           5.8755508875884169e-05                          6.2999990512208605e-21                          4.1145951628120719e-28                    2.3588869287044344e-27        -1.1830817660838695e-19  2500.0199999200008   2500                 10                   0                    1.7382576041243519e-20    2                             2                           0                     0.99999992470006505  0.00018070820828745862 -0.00034343024223202002        1.3863200633114042e-13              2.4953761139605275e-13       
                    -9.3679134016813446e-20                      4                                       86.187639952515156              -3.0297284806155398e-13             0                                 3.1411597631851856e-32                  5.8755508875884169e-05                         5.8755508875884169e-05                           5.8755508875884169e-05                          6.2999990512208605e-21                          4.1145951628120719e-28                    2.3588869287044344e-27        -1.1736171187965568e-19  2480.020161208372    2480                 10                   0                    1.7382576041243519e-20    3                             0                           1                     0.99999992470006505  0.00018070820828745862 -0.00034343024223202002        0                                2.4953761139605275e-13       
                    -9.3679182594669546e-20                      5                                       83.610515252183887              -2.8356142156425456e-13            -4.8577856112271551e-26               3.7321578694001104e-31                  0.00019777164804175138                         0.00019777164804175138                           0.00019777164804175138                          6.2999973557715628e-21                          1.2600344600331399e-27                    6.3943212960204176e-27        -1.1736176022133369e-19  2480.020161208372    2480                 10                   0                    1.7382572616163612e-20    4                             1                           1                     0.99999979014057827  0.00031623104965275412 -0.00056543412639519842        1.7329000791392552e-13              4.2282761930997827e-13       
                    -9.3679238227129767e-20                      6                                       80.597321510371444              -2.6092953479696946e-13            -5.5632460207212739e-26               1.6882157912195267e-30                  0.00036773369958741591                         0.00036773369958741591                           0.00036773369958741591                          6.2999941771634764e-21                          3.0974785507101434e-27                    1.3568562690376557e-26        -1.1736181559747913e-19  2480.020161208372    2480                 10                   0                    1.7382566525456434e-20    5                             2                           1                     0.9999995378700105   0.00049581095956748587 -0.00082366616963628183        2.1661250989240688e-13              6.394401292023851e-13       
                    -9.273277386451954e-20                      7                                       80.652164635772706              -2.6128971293868176e-13             0                                 1.6882157912195267e-30                  0.00036773369958741591                         0.00036773369958741591                           0.00036773369958741591                          6.2999941771634764e-21                          3.0974785507101434e-27                    1.3568562690376557e-26        -1.164153512348689e-19  2460.0203251192866   2460                 10                   0                    1.7382566525456434e-20    6                             0                           2                     0.9999995378700105   0.00049581095956748587 -0.00082366616963628183        0                                6.394401292023851e-13       
                    -9.2732836245343747e-20                      8                                       77.112497820630693              -2.3559322261709148e-13            -6.2380824207793928e-26               4.8616393219443606e-30                  0.00062521768916033661                         0.00062521768916033661                           0.00062521768916033661                          6.2999887523502556e-21                          6.7790985295023111e-27                    2.4946350736414254e-26        -1.1641541359253714e-19  2460.0203251192866   2460                 10                   0                    1.7382556864532224e-20    7                             1                           2                     0.99999910732898689  0.0007334937024931897 -0.0011168297778453413        2.707656373655086e-13              9.102057665678937e-13       
                    -9.2732903983147318e-20                      9                                       77.044126750636266              -2.0736854658437652e-13            -6.7737803564872617e-26               3.3731882912005743e-29                  0.0011921211797828145                         0.0011921211797828145                           0.0011921211797828145                          6.2999800908656476e-21                          1.3828161193328399e-26                    4.125413890443408e-26        -1.1641548220426617e-19  2460.0203251192866   2460                 10                   0                    1.738254301422123e-20    8                             2                           2                     0.99999841990872329  0.0010475843608905543 -0.001436202848212179        3.3845704670688575e-13              1.2486628132747795e-12       
                    -9.1786440678648082e-20                      10                                      77.125408904571145              -2.0773168817655635e-13             0                                 3.3731882912005743e-29                  0.0011921211797828145                         0.0011921211797828145                           0.0011921211797828145                          6.2999800908656476e-21                          1.3828161193328399e-26                    4.125413890443408e-26        -1.1546901889976694e-19  2440.0204917172314   2440                 9.9999999999999982   0                    1.738254301422123e-20    9                             0                           3                     0.99999841990872329  0.0010475843608905543 -0.001436202848212179        0                                1.2486628132747795e-12       
                    -9.1786480223506486e-20                      12                                      82.644807522238764              -1.931321539326971e-13            -3.9544858413748451e-26               2.0779553061296642e-28                  0.002930629870214369                         0.002930629870214369                           0.002930629870214369                          6.2999739782560624e-21                          1.9772516878933268e-26                    5.1223763491067345e-26        -1.1546905993770536e-19  2440.0204917172314   2440                 9.9999999999999982   0                    1.7382534531866907e-20    10                            1                           3                     0.99999793478009424  0.0012526741081470443 -0.0016003289177599525        2.115356541918036e-13              1.4601984674665831e-12       
                    -9.1786498058821129e-20                      14                                      89.29068502958053               -1.873185231466009e-13            -1.7835314641706653e-26               3.3787547732292535e-28                  0.0038464379889972338                         0.0038464379889972338                           0.0038464379889972338                          6.2999710247879986e-21                          2.2955119061016685e-26                    5.5548103087133919e-26        -1.1546907878070046e-19  2440.0204917172314   2440                 9.9999999999999982   0                    1.7382530855993709e-20    11                            2                           3                     0.99999770037735558  0.0013496860117251719 -0.0016665277200270524        9.8629351732438079e-14              1.5588278191990212e-12       
                    -9.0840035435333032e-20                      15                                      89.414274972207792              -1.8761260310081427e-13             0                                 3.3787547732292535e-28                  0.0038464379889972338                         0.0038464379889972338                           0.0038464379889972338                          6.2999710247879986e-21                          2.2955119061016685e-26                    5.5548103087133919e-26        -1.1452261615721236e-19  2420.0206610688265   2420                 10                   0                    1.7382530855993709e-20    12                            0                           4                     0.99999770037735558  0.0013496860117251719 -0.0016665277200270524        0                                1.5588278191990212e-12       
                    -9.0840048424947869e-20                      17                                      94.494883794318767              -1.8296279590789266e-13            -1.2989614856895061e-26               3.7916354977539931e-28                  0.0044786007459362773                         0.0044786007459362773                           0.0044786007459362773                          6.2999687755371722e-21                          2.5481014565359548e-26                    5.867922395867477e-26        -1.1452262994884489e-19  2420.0206610688265   2420                 10                   0                    1.738252820895777e-20    13                            1                           4                     0.99999752186495861  0.001422029478096241 -0.0017128305019647346        7.3536554852632304e-14              1.6323643740516536e-12       
                    -9.0840061017684686e-20                      18                                      78.082250335078868              -1.7860804768593378e-13            -1.2592736826278272e-26               4.3702780910377607e-28                  0.0045483340459085923                         0.0045483340459085923                           0.0045483340459085923                          6.2999664882763647e-21                          2.814259565800174e-26                    6.1715637479048247e-26        -1.1452264343714128e-19  2420.0206610688265   2420                 10                   0                    1.7382525635919279e-20    14                            2                           4                     0.99999734033585652  0.0014944619994938751 -0.0017565743660699349        7.353655449525817e-14              1.7059009285469117e-12       
                    -8.9893598734963195e-20                      19                                      77.958514649429375              -1.7886650383462305e-13             0                                 4.3702780910377607e-28                  0.0045483340459085923                         0.0045483340459085923                           0.0045483340459085923                          6.2999664882763647e-21                          2.814259565800174e-26                    6.1715637479048247e-26        -1.1357618115441979e-19  2400.0208332429115   2400                 10                   0                    1.7382525635919279e-20    15                            0                           5                     0.99999734033585652  0.0014944619994938751 -0.0017565743660699349        0                                1.7059009285469117e-12       
                    -8.9893608527405937e-20                      21                                      88.071462264850538              -1.7459296424556353e-13            -9.7924427585676305e-27               4.2625857116313649e-28                  0.0041045001781454468                         0.0045483340459085923                           0.0045483340459085923                          6.299964660529126e-21                          3.0330176369720951e-26                    6.4045659332155019e-26        -1.1357619163710967e-19  2400.0208332429115   2400                 10                   0                    1.7382523647080341e-20    16                            1                           5                     0.99999719527615549  0.0015514275792173557 -0.0017894560370201827        5.7979802840049755e-14              1.7638807313869614e-12       
                    -8.989361808956792e-20                      22                                      89.413187485301577              -1.70479781733333e-13            -9.562161971349269e-27               4.1920358462880891e-28                  0.0042531881416551613                         0.0045483340459085923                           0.0045483340459085923                          6.2999628139336767e-21                          3.2597010471411081e-26                    6.630971774115295e-26        -1.1357620194346201e-19  2400.0208332429115   2400                 10                   0                    1.7382521714028624e-20    17                            2                           5                     0.99999704872054007  0.0016083795549133193 -0.0018207950731702587        5.7979802709191779e-14              1.8218605340961534e-12       
                    -8.8947156082850053e-20                      23                                      89.411315588523237              -1.7071039654658891e-13             0                                 4.1920358462880891e-28                  0.0042531881416551613                         0.0042531881416551613                           0.0045483340459085923                          6.2999628139336767e-21                          3.2597010471411081e-26                    6.630971774115295e-26        -1.1262973993674415e-19  2380.0210083106408   2380                 10                   0                    1.7382521714028624e-20    18                            0                           6                     0.99999704872054007  0.0016083795549133193 -0.0018207950731702587        0                                1.8218605340961534e-12       
                    -8.8947167522093114e-20                      24                                      80.005483812292397              -1.6692012234805124e-13            -1.1439243081491443e-26               4.9230326002050331e-28                  0.0043401588146137725                         0.0043401588146137725                           0.0045483340459085923                          6.29996048762965e-21                          3.5510960009424137e-26                    6.9069493156638757e-26        -1.1262975244313942e-19  2380.0210083106408   2380                 10                   0                    1.7382519360660219e-20    19                            1                           6                     0.99999686409267408  0.001678748584244581 -0.0018582743437311831        7.1901974093825197e-14              1.8937625081899787e-12       
                    -8.8947178888182291e-20                      25                                      86.751335112379437              -1.6353635844464461e-13            -1.136608916008845e-26               5.8957884493560661e-28                  0.0041661868989374493                         0.0043401588146137725                           0.0045483340459085923                          6.299958074664914e-21                          3.8630798546356018e-26                    7.1777574008330971e-26        -1.126297650170855e-19  2380.0210083106408   2380                 10                   0                    1.7382517056286894e-20    20                            2                           6                     0.99999667258691693  0.0017508972950257852 -0.0018943819453930573        7.3818424205602295e-14              1.9675809323955808e-12       
# Table End
