# ODT 1.0
# Table Start
# Title: mmArchive Data Table, Thu Dec 15 01:44:24 EST 2011
# Columns: {Oxs_EulerEvolve:evolver:Total energy} {Oxs_EulerEvolve:evolver:Energy calc count} {Oxs_EulerEvolve:evolver:Max dm/dt} Oxs_EulerEvolve:evolver:dE/dt {Oxs_EulerEvolve:evolver:Delta E} Oxs_Exchange6Ngbr:DyFeYFe:Energy {Oxs_Exchange6Ngbr:DyFeYFe:Max Spin Ang} {Oxs_Exchange6Ngbr:DyFeYFe:Stage Max Spin Ang} {Oxs_Exchange6Ngbr:DyFeYFe:Run Max Spin Ang} Southampton_UniaxialAnisotropy4:xAnis:Energy Southampton_UniaxialAnisotropy4:yAnis:Energy Oxs_UniaxialAnisotropy:neg:Energy Oxs_UZeeman::Energy  Oxs_UZeeman::B       Oxs_UZeeman::Bx      Oxs_UZeeman::By      Oxs_UZeeman::Bz      Oxs_Demag::Energy    Oxs_TimeDriver::Iteration {Oxs_TimeDriver::Stage iteration} Oxs_TimeDriver::Stage Oxs_TimeDriver::mx   Oxs_TimeDriver::my   Oxs_TimeDriver::mz   {Oxs_TimeDriver::Last time step} {Oxs_TimeDriver::Simulation time}
# Units:                     J                                        {}                                    deg/ns                             J/s                              J                                J                                   deg                                         deg                                           deg                                           J                                            J                                       J                          J                 mT                   mT                   mT                   mT                     J                       {}                            {}                          {}                   {}                   {}                   {}                          s                                 s                
                    -9.2735521957088423e-20                      1                                       90.166768344549098              -3.3305299310666835e-13             0                                 0                                    0                                           0                                             0                                            8.1900000000000083e-21                          0                                      0                          -1.1830810000000005e-19  2500.0199999200008   2500                 10                   0                    1.7382578042911612e-20    0                             0                           0                     1                    0                    0                          0                                0                         
                    -9.2735557249045828e-20                      2                                       88.405117353452155              -3.2003323877051146e-13            -3.5291957387235028e-26               0                                    0                                           0                                             0                                            8.1899996929456524e-21                          7.6763587588199167e-29                    4.8738785681205086e-28        -1.1830813513550782e-19  2500.0199999200008   2500                 10                   0                    1.73825776293649e-20    1                             1                           0                     0.99999998476912932  7.8053495822740944e-05 -0.00015610699164548189        1.1090560506491234e-13              1.1090560506491234e-13       
                    -9.2735599132793278e-20                      3                                       86.387661353088546              -3.0439005350606627e-13            -4.1883747469633831e-26               3.1411597628777949e-32                  5.8755508875884169e-05                         5.8755508875884169e-05                           5.8755508875884169e-05                          8.1899984799100926e-21                          4.0979915772483959e-28                    2.3655766513506594e-27        -1.1830817642367767e-19  2500.0199999200008   2500                 10                   0                    1.738257603556709e-20    2                             2                           0                     0.99999992459870979  0.00018034323313205404 -0.00034391687572995783        1.3863200633114042e-13              2.4953761139605275e-13       
                    -9.1789134404157947e-20                      4                                       86.415060373804195              -3.0458451866645156e-13             0                                 3.1411597628777949e-32                  5.8755508875884169e-05                         5.8755508875884169e-05                           5.8755508875884169e-05                          8.1899984799100926e-21                          4.0979915772483959e-28                    2.3655766513506594e-27        -1.1736171169504234e-19  2480.020161208372    2480                 10                   0                    1.738257603556709e-20    3                             0                           1                     0.99999992459870979  0.00018034323313205404 -0.00034391687572995783        0                                2.4953761139605275e-13       
                    -9.1789183500900212e-20                      5                                       83.979406138273688              -2.8611473718612463e-13            -4.9096742265857753e-26               3.7412552095490568e-31                  0.00019801475564993389                         0.00019801475564993389                           0.00019801475564993389                          8.189995756241213e-21                          1.2495873232586654e-27                    6.4366851032750728e-27        -1.1736175952400263e-19  2480.020161208372    2480                 10                   0                    1.7382572580214646e-20    4                             1                           1                     0.99999978949605339  0.00031491734295627607 -0.00056730410003795993        1.7329000791392552e-13              4.2282761930997827e-13       
                    -9.1789240020607216e-20                      6                                       81.136144498239929              -2.6447087831493103e-13            -5.6519707004539691e-26               1.6987384066477803e-30                  0.00036914530488922127                         0.00036914530488922127                           0.00036914530488922127                          8.1899906341488725e-21                          3.0586010939042886e-27                    1.3728119176557934e-26        -1.1736181383321911e-19  2480.020161208372    2480                 10                   0                    1.738256639004401e-20    5                             2                           1                     0.99999953542386222  0.00049268949945769388 -0.00082849488863648367        2.1661250989240688e-13              6.394401292023851e-13       
                    -9.0842775660312173e-20                      7                                       81.192767257967759              -2.6484531915590254e-13             0                                 1.6987384066477803e-30                  0.00036914530488922127                         0.00036914530488922127                           0.00036914530488922127                          8.1899906341488725e-21                          3.0586010939042886e-27                    1.3728119176557934e-26        -1.1641534947292407e-19  2460.0203251192866   2460                 10                   0                    1.738256639004401e-20    6                             0                           2                     0.99999953542386222  0.00049268949945769388 -0.00082849488863648367        0                                6.394401292023851e-13       
                    -9.0842839456550818e-20                      8                                       77.802603449978378              -2.4011749890668504e-13            -6.3796238624490805e-26               4.9020667271646053e-30                  0.00062595409228628589                         0.00062595409228628589                           0.00062595409228628589                          8.1899818566036876e-21                          6.6672506119983786e-27                    2.5415878557683801e-26        -1.1641540986717522e-19  2460.0203251192866   2460                 10                   0                    1.7382556465989478e-20    7                             1                           2                     0.99999910002923631  0.00072741727959047063 -0.0011272910492678397        2.707656373655086e-13              9.102057665678937e-13       
                    -9.0842909313050108e-20                      9                                       77.998855457519426              -2.1271667763269256e-13            -6.9856499311514202e-26               3.3474287354884612e-29                  0.0011906540058711059                         0.0011906540058711059                           0.0011906540058711059                          8.1899677648865756e-21                          1.3556657939648631e-26                    4.2440099016781271e-26        -1.1641547511558533e-19  2460.0203251192866   2460                 10                   0                    1.7382542007417404e-20    8                             2                           2                     0.99999840103380355  0.0010372483109125858 -0.0014567005102217542        3.3845704670688575e-13              1.2486628132747795e-12       
                    -8.9896446026415341e-20                      10                                      78.085606798949883              -2.1312364786188669e-13             0                                 3.3474287354884612e-29                  0.0011906540058711059                         0.0011906540058711059                           0.0011906540058711059                          8.1899677648865756e-21                          1.3556657939648631e-26                    4.2440099016781271e-26        -1.1546901182895057e-19  2440.0204917172314   2440                 9.9999999999999982   0                    1.7382542007417404e-20    9                             0                           3                     0.99999840103380355  0.0010372483109125858 -0.0014567005102217542        0                                1.2486628132747795e-12       
                    -8.9896486897002091e-20                      12                                      83.039432059043293              -1.9890309775029998e-13            -4.0870586751960214e-26               2.0462749565604493e-28                  0.0029205803237113211                         0.0029205803237113211                           0.0029205803237113211                          8.189957746294203e-21                          1.9365022279320047e-26                    5.3098667319579525e-26        -1.1546905025149613e-19  2440.0204917172314   2440                 9.9999999999999982   0                    1.7382532939882749e-20    10                            1                           3                     0.99999790407820977  0.0012396971810728821 -0.0016293553094414975        2.115356541918036e-13              1.4601984674665831e-12       
                    -8.9896505865139373e-20                      14                                      91.271640376280232              -1.9319773829006816e-13            -1.8968137280084198e-26               3.4642020410192238e-28                  0.0039090320796769992                         0.0039090320796769992                           0.0039090320796769992                          8.1899527275579868e-21                          2.2577873283534874e-26                    5.7956735462681307e-26        -1.1546906828426131e-19  2440.0204917172314   2440                 9.9999999999999982   0                    1.7382528810535e-20    11                            2                           3                     0.9999976551319929   0.0013385455746870642 -0.0017022764082999815        1.0161470465997174e-13              1.5618131721265549e-12       
                    -8.8950043284474401e-20                      15                                      91.399654184719182              -1.9355073134124454e-13             0                                 3.4642020410192238e-28                  0.0039090320796769992                         0.0039090320796769992                           0.0039090320796769992                          8.1899527275579868e-21                          2.2577873283534874e-26                    5.7956735462681307e-26        -1.1452260570359634e-19  2420.0206610688265   2420                 10                   0                    1.7382528810535e-20    12                            0                           4                     0.9999976551319929   0.0013385455746870642 -0.0017022764082999815        0                                1.5618131721265549e-12       
                    -8.8950056897072386e-20                      17                                      95.627088426709406              -1.8904042048303109e-13            -1.3612597985658801e-26               3.9372023853437541e-28                  0.0045734159152980231                         0.0045734159152980231                           0.0045734159152980231                          8.1899489548629218e-21                          2.5093824798327973e-26                    6.1448685929648582e-26        -1.1452261864591528e-19  2420.0206610688265   2420                 10                   0                    1.7382525857749007e-20    13                            1                           4                     0.99999746799354317  0.0014111818388605893 -0.0017527841407159774        7.4564941369924798e-14              1.6363781134964797e-12       
                    -8.8950070108003572e-20                      18                                      77.534303901468533              -1.8484268627853134e-13            -1.3210931200999773e-26               4.6065726983794493e-28                  0.0046478257950375501                         0.0046478257950375501                           0.0046478257950375501                          8.1899451098245385e-21                          2.7749432969742253e-26                    6.4862499618279183e-26        -1.1452263125445408e-19  2420.0206610688265   2420                 10                   0                    1.7382522964036112e-20    14                            2                           4                     0.99999727726655518  0.0014839812093810126 -0.0018008026770883687        7.4564941098222207e-14              1.7109430545947019e-12       
                    -8.8003607884974956e-20                      19                                      77.411728950303981              -1.8516645328933129e-13             0                                 4.6065726983794493e-28                  0.0046478257950375501                         0.0046478257950375501                           0.0046478257950375501                          8.1899451098245385e-21                          2.7749432969742253e-26                    6.4862499618279183e-26        -1.1357616903142546e-19  2400.0208332429115   2400                 10                   0                    1.7382522964036112e-20    15                            0                           5                     0.99999727726655518  0.0014839812093810126 -0.0018008026770883687        0                                1.7109430545947019e-12       
                    -8.8003617795340655e-20                      21                                      90.16409024996139               -1.8095479713073961e-13            -9.9103656923398387e-27               4.4178200744611899e-28                  0.0041905699796790496                         0.0046478257950375501                           0.0046478257950375501                          8.189942151270087e-21                          2.984935015535926e-26                    6.7399462344200216e-26        -1.135761784361152e-19  2400.0208332429115   2400                 10                   0                    1.7382520798909959e-20    16                            1                           5                     0.99999713051214423  0.0015390755686048121 -0.0018357123272874671        5.6521817342624666e-14              1.7674648719373264e-12       
                    -8.8003627489751746e-20                      22                                      90.578850636539613              -1.7689907863602387e-13            -9.6944110989570659e-27               4.2694757869907517e-28                  0.0042996845267022007                         0.0046478257950375501                           0.0046478257950375501                          8.1899391582451502e-21                          3.202510404115069e-26                    6.9884444476921972e-26        -1.1357618766254332e-19  2400.0208332429115   2400                 10                   0                    1.7382518678050329e-20    17                            2                           5                     0.99999698204784115  0.0015942036125335297 -0.0018692318023327791        5.6521817243685359e-14              1.8239866891810118e-12       
                    -8.7057165546137238e-20                      23                                      90.5851330566109                -1.7720168109763325e-13             0                                 4.2694757869907517e-28                  0.0042996845267022007                         0.0042996845267022007                           0.0046478257950375501                          8.1899391582451502e-21                          3.202510404115069e-26                    6.9884444476921972e-26        -1.1262972571892882e-19  2380.0210083106408   2380                 10                   0                    1.7382518678050329e-20    18                            0                           6                     0.99999698204784115  0.0015942036125335297 -0.0018692318023327791        0                                1.8239866891810118e-12       
                    -8.7057177266322261e-20                      24                                      80.891184974515625              -1.7344420069427254e-13            -1.1720185030717404e-26               4.9189186573571849e-28                  0.0043496774368041655                         0.0043496774368041655                           0.0046478257950375501                          8.1899353523075654e-21                          3.4844269730298702e-26                    7.2961066530132755e-26        -1.126297369712132e-19  2380.0210083106408   2380                 10                   0                    1.7382516055355249e-20    19                            1                           6                     0.99999679326022572  0.0016629125671559536 -0.0019099103278248889        7.0652271554606699e-14              1.8946389607356184e-12       
                    -8.7057189260437981e-20                      25                                      88.265489621867403              -1.7014137912243617e-13            -1.1994115709792823e-26               5.9561684672368776e-28                  0.0041901539691373228                         0.0043496774368041655                           0.0046478257950375501                          8.189931277207037e-21                          3.795641360536839e-26                    7.6106701167951516e-26        -1.12629748575307e-19  2380.0210083106408   2380                 10                   0                    1.738251337893036e-20    20                            2                           6                     0.99999659112113259  0.0017355425912436615 -0.0019506750286078273        7.4693679293420709e-14              1.9693326400290392e-12       
# Table End
