# ODT 1.0
# Table Start
# Title: mmArchive Data Table, Thu Dec 15 01:44:24 EST 2011
# Columns: {Oxs_EulerEvolve:evolver:Total energy} {Oxs_EulerEvolve:evolver:Energy calc count} {Oxs_EulerEvolve:evolver:Max dm/dt} Oxs_EulerEvolve:evolver:dE/dt {Oxs_EulerEvolve:evolver:Delta E} Oxs_Exchange6Ngbr:DyFeYFe:Energy {Oxs_Exchange6Ngbr:DyFeYFe:Max Spin Ang} {Oxs_Exchange6Ngbr:DyFeYFe:Stage Max Spin Ang} {Oxs_Exchange6Ngbr:DyFeYFe:Run Max Spin Ang} Southampton_UniaxialAnisotropy4:xAnis:Energy Southampton_UniaxialAnisotropy4:yAnis:Energy Oxs_UniaxialAnisotropy:neg:Energy Oxs_UZeeman::Energy  Oxs_UZeeman::B       Oxs_UZeeman::Bx      Oxs_UZeeman::By      Oxs_UZeeman::Bz      Oxs_Demag::Energy    Oxs_TimeDriver::Iteration {Oxs_TimeDriver::Stage iteration} Oxs_TimeDriver::Stage Oxs_TimeDriver::mx   Oxs_TimeDriver::my   Oxs_TimeDriver::mz   {Oxs_TimeDriver::Last time step} {Oxs_TimeDriver::Simulation time}
# Units:                     J                                        {}                                    deg/ns                             J/s                              J                                J                                   deg                                         deg                                           deg                                           J                                            J                                       J                          J                 mT                   mT                   mT                   mT                     J                       {}                            {}                          {}                   {}                   {}                   {}                          s                                 s                
                    -9.3995521957088434e-20                      1                                       90.166768344549098              -3.3305299310666835e-13             0                                 0                                    0                                           0                                             0                                            6.9300000000000038e-21                          0                                      0                          -1.1830810000000005e-19  2500.0199999200008   2500                 10                   0                    1.7382578042911612e-20    0                             0                           0                     1                    0                    0                          0                                0                         
                    -9.3995557172282243e-20                      2                                       88.336438038214581              -3.1953000188860899e-13            -3.5215193797834219e-26               0                                    0                                           0                                             0                                            6.9299997697092312e-21                          7.6763587494665072e-29                    4.8738785681205086e-28        -1.1830813513550782e-19  2500.0199999200008   2500                 10                   0                    1.73825776293649e-20    1                             1                           0                     0.99999998476912932  7.8053495822740944e-05 -0.00015610699164548189        1.1090560506491234e-13              1.1090560506491234e-13       
                    -9.3995598874462082e-20                      3                                       86.236051206769403              -3.0331549661899637e-13            -4.170217984169722e-26               3.1411597630835958e-32                  5.8755508875884169e-05                         5.8755508875884169e-05                           5.8755508875884169e-05                          6.9299988609548371e-21                          4.1090569045708685e-28                    2.3611157837549555e-27        -1.1830817654682207e-19  2500.0199999200008   2500                 10                   0                    1.7382576039352268e-20    2                             2                           0                     0.99999992466632104  0.00018058654990232682 -0.00034359245339801926        1.3863200633114042e-13              2.4953761139605275e-13       
                    -9.3049134145762738e-20                      4                                       86.263247026469401              -3.035081829767576e-13             0                                 3.1411597630835958e-32                  5.8755508875884169e-05                         5.8755508875884169e-05                           5.8755508875884169e-05                          6.9299988609548371e-21                          4.1090569045708685e-28                    2.3611157837549555e-27        -1.1736171181812272e-19  2480.020161208372    2480                 10                   0                    1.7382576039352268e-20    3                             0                           1                     0.99999992466632104  0.00018058654990232682 -0.00034359245339801926        0                                2.4953761139605275e-13       
                    -9.304918289597457e-20                      5                                       83.73303188333864               -2.8440819168885233e-13            -4.8750211828388288e-26               3.7351868715125144e-31                  0.00019785271710155494                         0.00019785271710155494                           0.00019785271710155494                          6.9299968236826877e-21                          1.2565518598222492e-27                    6.4084294090538333e-27        -1.1736175998920384e-19  2480.020161208372    2480                 10                   0                    1.7382572604191788e-20    4                             1                           1                     0.99999978992607386  0.00031579372682492168 -0.00056605755628934631        1.7329000791392552e-13              4.2282761930997827e-13       
                    -9.304923882257592e-20                      6                                       80.776058961418499              -2.6210155467440638e-13            -5.5926601347979176e-26               1.6917147122711089e-30                  0.00036820417609770707                         0.00036820417609770707                           0.00036820417609770707                          6.9299930002932104e-21                          3.0845332378239047e-27                    1.362165987480449e-26        -1.1736181501114784e-19  2480.020161208372    2480                 10                   0                    1.7382566480393883e-20    5                             2                           1                     0.99999953705628619  0.00049477377086305362 -0.00082527620666081151        2.1661250989240688e-13              6.394401292023851e-13       
                    -9.2102774460735849e-20                      7                                       80.831495847337891              -2.624664692530363e-13             0                                 1.6917147122711089e-30                  0.00036820417609770707                         0.00036820417609770707                           0.00036820417609770707                          6.9299930002932104e-21                          3.0845332378239047e-27                    1.362165987480449e-26        -1.1641535064930777e-19  2460.0203251192866   2460                 10                   0                    1.7382566480393883e-20    6                             0                           2                     0.99999953705628619  0.00049477377086305362 -0.00082527620666081151        0                                6.394401292023851e-13       
                    -9.2102837309676985e-20                      8                                       77.340897184537056              -2.3708649506643038e-13            -6.284894116083161e-26               4.8750057366152115e-30                  0.00062546189354264624                         0.00062546189354264624                           0.00062546189354264624                          6.929986466128795e-21                          6.741930298230149e-27                    2.5102421331074136e-26        -1.1641541235708929e-19  2460.0203251192866   2460                 10                   0                    1.7382556732056871e-20    7                             1                           2                     0.99999910490216393  0.00073148004320504475 -0.0011203179330230913        2.707656373655086e-13              9.102057665678937e-13       
                    -9.2102905746043755e-20                      9                                       77.360378115334612              -2.0912722009177967e-13            -6.8436366742476862e-26               3.3644826347013975e-29                  0.0011916285503295067                         0.0011916285503295067                           0.0011916285503295067                          6.9299760142437549e-21                          1.3738255840440686e-26                    4.1647645456175786e-26        -1.1641547985999259e-19  2460.0203251192866   2460                 10                   0                    1.7382542680158955e-20    8                             2                           2                     0.9999984136387825   0.0010441730195040501 -0.0014430363353427926        3.3845704670688575e-13              1.2486628132747795e-12       
                    -9.1156442447478815e-20                      10                                      77.443481345039828              -2.0950484851830699e-13             0                                 3.3644826347013975e-29                  0.0011916285503295067                         0.0011916285503295067                           0.0011916285503295067                          6.9299760142437549e-21                          1.3738255840440686e-26                    4.1647645456175786e-26        -1.1546901656142765e-19  2440.0204917172314   2440                 9.9999999999999982   0                    1.7382542680158955e-20    9                             0                           3                     0.9999984136387825   0.0010441730195040501 -0.0014430363353427926        0                                1.2486628132747795e-12       
                    -9.1156482427979635e-20                      12                                      82.772901157271534              -1.9502591661931241e-13            -3.9980500840581953e-26               2.0673135200046787e-28                  0.0029272449671292385                         0.0029272449671292385                           0.0029272449671292385                          6.9299686197907543e-21                          1.9638096865449368e-26                    5.18448778267288e-26        -1.1546905674195214e-19  2440.0204917172314   2440                 9.9999999999999982   0                    1.7382534004475716e-20    10                            1                           3                     0.99999792458646375  0.0012484083227040103 -0.0016100026894095914        2.115356541918036e-13              1.4601984674665831e-12       
                    -9.1156500630233211e-20                      14                                      89.946914240586494              -1.8924497602495749e-13            -1.8202253589406611e-26               3.4061352383121245e-28                  0.0038666489436139078                         0.0038666489436139078                           0.0038666489436139078                          6.9299650039993301e-21                          2.2831215145810667e-26                    5.6342030605930227e-26        -1.154690753298656e-19  2440.0204917172314   2440                 9.9999999999999982   0                    1.7382530181773775e-20    11                            2                           3                     0.99999768544611922  0.001346037182228169 -0.0016783952453125446        9.9605185541579599e-14              1.5598036530081626e-12       
                    -9.0210038020876987e-20                      15                                      90.071976456423769              -1.8955843433804348e-13             0                                 3.4061352383121245e-28                  0.0038666489436139078                         0.0038666489436139078                           0.0038666489436139078                          6.9299650039993301e-21                          2.2831215145810667e-26                    5.6342030605930227e-26        -1.1452261272050937e-19  2420.0206610688265   2420                 10                   0                    1.7382530181773775e-20    12                            0                           4                     0.99999768544611922  0.001346037182228169 -0.0016783952453125446        0                                1.5598036530081626e-12       
                    -9.0210051215170582e-20                      17                                      94.874549465823335              -1.8495224505618639e-13            -1.3194293570239097e-26               3.8388117636254165e-28                  0.0045096627077495606                         0.0045096627077495606                           0.0045096627077495606                          6.9299622617572214e-21                          2.5354675344896322e-26                    5.9591154321404568e-26        -1.1452262624138615e-19  2420.0206610688265   2420                 10                   0                    1.7382527434747507e-20    13                            1                           4                     0.99999750408031929  0.0014184990309962307 -0.0017260885973701958        7.3884795098766696e-14              1.6336884481069293e-12       
                    -9.0210064010796836e-20                      18                                      77.908174999252182              -1.8064673373135763e-13            -1.2795626250561327e-26               4.4471125560450941e-28                  0.0045810550277089728                         0.0045810550277089728                           0.0045810550277089728                          6.9299594710888773e-21                          2.8015251328367819e-26                    6.2750746490975205e-26        -1.1452263944964149e-19  2420.0206610688265   2420                 10                   0                    1.7382524757046704e-20    14                            2                           4                     0.99999731951166959  0.0014910753606694222 -0.001771244437010565        7.3884794767181346e-14              1.7075732428741107e-12       
                    -8.9263601747784686e-20                      19                                      77.784783986792576              -1.8092660886500433e-13             0                                 4.4471125560450941e-28                  0.0045810550277089728                         0.0045810550277089728                           0.0045810550277089728                          6.9299594710888773e-21                          2.8015251328367819e-26                    6.2750746490975205e-26        -1.1357617718662934e-19  2400.0208332429115   2400                 10                   0                    1.7382524757046704e-20    15                            0                           5                     0.99999731951166959  0.0014910753606694222 -0.001771244437010565        0                                1.7075732428741107e-12       
                    -8.9263611580866259e-20                      21                                      88.769418671129671              -1.7667329694268657e-13            -9.8330815718509277e-27               4.3133823155571494e-28                  0.0041329681346980547                         0.0045810550277089728                           0.0045810550277089728                          6.9299572686785344e-21                          3.0174370806118498e-26                    6.5150062027087249e-26        -1.135761873144922e-19  2400.0208332429115   2400                 10                   0                    1.7382522709176343e-20    16                            1                           5                     0.99999717384907527  0.001547435840256224 -0.0018048190952730933        5.7503371019434819e-14              1.7650766138935455e-12       
                    -8.926362118839877e-20                      22                                      89.796374531525501              -1.7257831816544563e-13            -9.6075325100682687e-27               4.2174998762697462e-28                  0.0042685474574342616                         0.0045810550277089728                           0.0045810550277089728                          6.9299550425377298e-21                          3.2411690006982893e-26                    6.7488030557349873e-26        -1.1357619726569923e-19  2400.0208332429115   2400                 10                   0                    1.7382520713292181e-20    17                            2                           5                     0.99999702661697132  0.0016037997060378609 -0.0018369020425474346        5.7503370899629605e-14              1.8225799847931751e-12       
                    -8.8317159202601149e-20                      23                                      89.797139853316423              -1.7283254015173794e-13             0                                 4.2174998762697462e-28                  0.0042685474574342616                         0.0042685474574342616                           0.0045810550277089728                          6.9299550425377298e-21                          3.2411690006982893e-26                    6.7488030557349873e-26        -1.1262973527990161e-19  2380.0210083106408   2380                 10                   0                    1.7382520713292181e-20    18                            0                           6                     0.99999702661697132  0.0016037997060378609 -0.0018369020425474346        0                                1.8225799847931751e-12       
                    -8.8317170793276603e-20                      24                                      80.279949989514392              -1.6906383271877576e-13            -1.1590675485786053e-26               4.9492423877475512e-28                  0.0043528142026546309                         0.0043528142026546309                           0.0045810550277089728                          6.9299522141108249e-21                          3.531104462040638e-26                    7.0368501365426286e-26        -1.1262974743914185e-19  2380.0210083106408   2380                 10                   0                    1.738251825728419e-20    19                            1                           6                     0.99999683955093444  0.0016740154375679177 -0.0018756683002130157        7.1879213624537003e-14              1.8944591984177121e-12       
                    -8.8317182361093279e-20                      25                                      87.348887132613811              -1.6571411453154327e-13            -1.1567816652823242e-26               5.9487955039533093e-28                  0.004186526151445478                         0.0043528142026546309                           0.0045810550277089728                          6.9299492656183718e-21                          3.8430081798957914e-26                    7.3217904659397307e-26        -1.1262975970236715e-19  2380.0210083106408   2380                 10                   0                    1.7382515832789504e-20    20                            2                           6                     0.99999664454397241  0.0017463408427798781 -0.0019132948897932994        7.4106549720629153e-14              1.9685657481383411e-12       
# Table End
