# ODT 1.0
# Table Start
# Title: mmArchive Data Table, Wed Jun 11 15:42:34 EDT 2014
# Columns: {Oxs_EulerEvolve:evolver:Total energy} {Oxs_EulerEvolve:evolver:Energy calc count} {Oxs_EulerEvolve:evolver:Max dm/dt} Oxs_EulerEvolve:evolver:dE/dt {Oxs_EulerEvolve:evolver:Delta E} Oxs_Exchange6Ngbr:DyFeYFe:Energy {Oxs_Exchange6Ngbr:DyFeYFe:Max Spin Ang} {Oxs_Exchange6Ngbr:DyFeYFe:Stage Max Spin Ang} {Oxs_Exchange6Ngbr:DyFeYFe:Run Max Spin Ang} Southampton_UniaxialAnisotropy4:xAnis:Energy Southampton_UniaxialAnisotropy4:yAnis:Energy Oxs_UniaxialAnisotropy:neg:Energy Oxs_UZeeman::Energy  Oxs_UZeeman::B       Oxs_UZeeman::Bx      Oxs_UZeeman::By      Oxs_UZeeman::Bz      Oxs_Demag::Energy    Oxs_TimeDriver::Iteration {Oxs_TimeDriver::Stage iteration} Oxs_TimeDriver::Stage Oxs_TimeDriver::mx   Oxs_TimeDriver::my   Oxs_TimeDriver::mz   {Oxs_TimeDriver::Last time step} {Oxs_TimeDriver::Simulation time}
# Units:                     J                                        {}                                    deg/ns                             J/s                              J                                J                                   deg                                         deg                                           deg                                           J                                            J                                       J                          J                 mT                   mT                   mT                   mT                     J                       {}                            {}                          {}                   {}                   {}                   {}                          s                                 s                
                    -9.4625521957090166e-20                      1                                       90.166768344549084              -3.3305299310666804e-13             0                                 0                                    0                                           0                                             0                                            6.3000000000000015e-21                          0                                      0                          -1.1830810000000003e-19  2500.0199999200008   2500                 10                   0                    1.7382578042909867e-20    0                             0                           0                     1                    0                    0                          0                                0                         
                    -9.4625557133902178e-20                      2                                       88.302197643502382              -3.1927924650850486e-13            -3.5176812013306521e-26               0                                    0                                           0                                             0                                            6.2999998080910312e-21                          7.6763587447897969e-29                    4.8738785681205059e-28        -1.183081351355078e-19  2500.0199999200008   2500                 10                   0                    1.7382577629363157e-20    1                             1                           0                     0.99999998476912921  7.8053495822740903e-05 -0.00015610699164548181        1.1090560506491233e-13              1.1090560506491233e-13       
                    -9.4625598745546446e-20                      3                                       86.160545898092039              -3.0278104970720558e-13            -4.1611644272649536e-26               3.1411597631853055e-32                  5.8752771695157051e-05                         5.8752771695157051e-05                           5.8752771695157051e-05                          6.2999990512208605e-21                          4.1145951628121015e-28                    2.3588869287044287e-27        -1.1830817660838695e-19  2500.0199999200008   2500                 10                   0                    1.7382576041241777e-20    2                             2                           0                     0.99999992470006538  0.00018070820828745929 -0.00034343024223201969        1.386320063311404e-13              2.4953761139605275e-13       
                    -9.4625647260223185e-20                      4                                       83.565913657406099              -2.8325264727747057e-13            -4.8514676734942222e-26               3.7320013418860002e-31                  0.00019776825285261915                         0.00019776825285261915                           0.00019776825285261915                          6.2999973565042249e-21                          1.2610184991206703e-27                    6.3904334171414162e-27        -1.1830822488801342e-19  2500.0199999200008   2500                 10                   0                    1.7382572619460889e-20    3                             3                           0                     0.99999979019872598  0.00031635450889359857 -0.00056526220221137251        1.7329000791392552e-13              4.2282761930997827e-13       
                    -9.4625702784205534e-20                      5                                       80.531616404761721              -2.6049892551022452e-13            -5.5523982348312773e-26               1.6873896856434451e-30                  0.00036761974029270563                         0.00036761974029270563                           0.00036761974029270563                          6.2999941805663268e-21                          3.1019062694609881e-27                    1.3550731870822427e-26        -1.1830828015968419e-19  2500.0199999200008   2500                 10                   0                    1.7382566540586795e-20    4                             4                           0                     0.99999953814007791  0.00049616521184475747 -0.00082312478871897766        2.1661250989240688e-13              6.394401292023851e-13       
                    -9.3679238421339688e-20                      6                                       80.586225597332017              -2.6085726325603586e-13             0                                 1.6873896856434451e-30                  0.00036761974029270563                         0.00036761974029270563                           0.00036761974029270563                          6.2999941805663268e-21                          3.1019062694609881e-27                    1.3550731870822427e-26        -1.1736181579681834e-19  2480.0201612083724   2480                 10                   0                    1.7382566540586795e-20    5                             0                           1                     0.99999953814007791  0.00049616521184475747 -0.00082312478871897766        0                                6.394401292023851e-13       
                    -9.3679300629025249e-20                      7                                       77.028601980555493              -2.3504273190221877e-13            -6.2207685564867017e-26               4.8579422996000204e-30                  0.00062521937290438336                         0.00062521937290438336                           0.00062521937290438336                          6.2999887631609661e-21                          6.7925291443813995e-27                    2.4890712580730898e-26        -1.1736187799204207e-19  2480.0201612083724   2480                 10                   0                    1.7382556911756174e-20    6                             1                           1                     0.99999910818698046  0.00073421996527045215 -0.0011155836352944939        2.707656373655086e-13              9.102057665678937e-13       
                    -9.3679368108263697e-20                      8                                       76.926899186531386              -2.0671997271762978e-13            -6.7479238438329739e-26               3.3774144025407655e-29                  0.0011924315813588993                         0.0011924315813588993                           0.0011924315813588993                          6.2999801195463466e-21                          1.3861295425132e-26                    4.1110495052981465e-26        -1.1736194636953876e-19  2480.0201612083724   2480                 10                   0                    1.7382543136164087e-20    7                             2                           1                     0.99999842218497315  0.0010488387741674659 -0.0014337002667582322        3.3845704670688575e-13              1.2486628132747795e-12       
                    -9.3679407388193441e-20                      10                                      82.605363972973805              -1.920048711793299e-13            -3.9279929746958497e-26               2.0834350912696335e-28                  0.002932744606069937                         0.002932744606069937                           0.002932744606069937                          6.2999740378814527e-21                          1.9839345146008991e-26                    5.0928399921775264e-26        -1.1736198718480467e-19  2480.0201612083724   2480                 10                   0                    1.7382534782641195e-20    8                             3                           1                     0.999997939512278    0.0012547894290366674 -0.0015957080751041886        2.115356541918036e-13              1.4601984674665831e-12       
                    -9.3679425002252701e-20                      12                                      88.844292390420236              -1.861538515051853e-13            -1.7614059258424734e-26               3.3607292027574759e-28                  0.0038327979115564547                         0.0038327979115564547                           0.0038327979115564547                          6.2999711218636617e-21                          2.3019089938204099e-26                    5.5138385302330487e-26        -1.1736200582157189e-19  2480.0201612083724   2480                 10                   0                    1.7382531203907365e-20    9                             4                           1                     0.99999770808179078  0.0013515660395024102 -0.001660370101631466        9.8036117991299403e-14              1.5582345854578825e-12       
                    -9.2732962371472612e-20                      13                                      88.966274676343971              -1.8643044916703092e-13             0                                 3.3607292027574759e-28                  0.0038327979115564547                         0.0038327979115564547                           0.0038327979115564547                          6.2999711218636617e-21                          2.3019089938204099e-26                    5.5138385302330487e-26        -1.1641554319079179e-19  2460.0203251192866   2460                 10                   0                    1.7382531203907365e-20    10                            0                           2                     0.99999770808179078  0.0013515660395024102 -0.001660370101631466        0                                1.5582345854578825e-12       
                    -9.2732975230856416e-20                      15                                      94.26607915750418               -1.8174250723850822e-13            -1.2859383810676265e-26               3.76011182976264e-28                  0.0044582531797867                          0.0044582531797867                            0.0044582531797867                           6.2999688967948222e-21                          2.5548261684727523e-26                    5.818753757428942e-26        -1.1641555686579626e-19  2460.0203251192866   2460                 10                   0                    1.7382528626334568e-20    11                            1                           2                     0.9999975314886056   0.001423904979524574 -0.0017056394380108803        7.3292768473742064e-14              1.6315273539316245e-12       
                    -9.2732987694019567e-20                      16                                      78.259633374769663              -1.7734653427053789e-13            -1.2463163146461059e-26               4.3187159561791362e-28                  0.004526904217773184                         0.004526904217773184                           0.004526904217773184                          6.2999666354495567e-21                          2.8212287294555656e-26                    6.1137799354196954e-26        -1.1641557023792304e-19  2460.0203251192866   2460                 10                   0                    1.7382526126495676e-20    12                            2                           2                     0.99999735201629969  0.0014963121643900663 -0.0017483314403751306        7.3292768128325268e-14              1.7048201220599498e-12       
                    -9.2732997460070677e-20                      18                                      87.509152630947995              -1.7303298363231995e-13            -9.7660511078906917e-27               4.233139531100644e-28                  0.0040879688392799146                         0.004526904217773184                           0.004526904217773184                          6.2999648161425803e-21                          3.0430446407867194e-26                    6.3392489576849778e-26        -1.1641558072418805e-19  2460.0203251192866   2460                 10                   0                    1.7382524201724855e-20    13                            3                           2                     0.99999720762646438  0.0015539908699975166 -0.0017803075363355776        5.8380267157523793e-14              1.7632003892174736e-12       
                    -9.273300699055683e-20                      19                                      89.187578028453657              -1.6888340147137937e-13            -9.5304861586696482e-27               4.1842159391850668e-28                  0.0042477515733881713                         0.004526904217773184                           0.004526904217773184                          6.2999629792098676e-21                          3.2728979701986078e-26                    6.5575556450873988e-26        -1.1641559103019172e-19  2460.0203251192866   2460                 10                   0                    1.7382522337467274e-20    14                            4                           2                     0.9999970618377364   0.0016116327881932702 -0.0018106868092298174        5.8380267029064434e-14              1.821580656246538e-12       
                    -9.1786544971423985e-20                      20                                      89.180902276674615              -1.690786865000051e-13             0                                 4.1842159391850668e-28                  0.0042477515733881713                         0.0042477515733881713                           0.004526904217773184                          6.2999629792098676e-21                          3.2728979701986078e-26                    6.5575556450873988e-26        -1.1546912901105888e-19  2440.0204917172318   2440                 10                   0                    1.7382522337467274e-20    15                            0                           3                     0.9999970618377364   0.0016116327881932702 -0.0018106868092298174        0                                1.821580656246538e-12       
                    -9.1786556240840073e-20                      21                                      79.884862699353917              -1.6524071900070966e-13            -1.1269416083705894e-26               4.893878695781163e-28                  0.0043279516199557881                         0.0043279516199557881                           0.004526904217773184                          6.2999606929012121e-21                          3.5649768745410928e-26                    6.8197506081988573e-26        -1.1546914137167851e-19  2440.0204917172318   2440                 10                   0                    1.7382520101274539e-20    16                            1                           3                     0.99999688038411849  0.0016820270258334756 -0.0018465063984176593        7.1584596803133269e-14              1.8931652530496713e-12       
                    -9.1786567432607721e-20                      22                                      86.179667445427768              -1.6180022696530326e-13            -1.119176764194822e-26               5.8359681100706409e-28                  0.0041437556189266806                         0.0043279516199557881                           0.004526904217773184                          6.2999583238494505e-21                          3.8774674473962906e-26                    7.0758137502812874e-26        -1.1546915379504658e-19  2440.0204917172318   2440                 10                   0                    1.7382517922180631e-20    17                            2                           3                     0.99999669236353306  0.0017541561989096099 -0.0018808807552269774        7.3485040158894857e-14              1.9666502932085661e-12       
                    -9.1786576848484599e-20                      23                                      91.30116087234434               -1.5820858791380243e-13            -9.4158768822969729e-27               5.9363002056779996e-28                  0.004313236076483512                         0.0043279516199557881                           0.004526904217773184                          6.2999562829868674e-21                          4.1547751721504769e-26                    7.2835356420603103e-26        -1.1546916427565685e-19  2440.0204917172318   2440                 10                   0                    1.7382516167447222e-20    18                            3                           3                     0.99999653038976366  0.0018158246555943661 -0.0019082664652686941        6.2994740056691846e-14              2.029645033265258e-12       
                    -9.1786585853966992e-20                      24                                      83.523122065683239              -1.5465265275311349e-13            -9.005482398178176e-27               5.9691372391439723e-28                  0.0043160049673164579                         0.0043279516199557881                           0.004526904217773184                          6.2999542740256233e-21                          4.4349430616066374e-26                    7.4765901807551299e-26        -1.1546917437402551e-19  2440.0204917172318   2440                 10                   0                    1.7382514533786749e-20    19                            4                           3                     0.99999637094782878  0.0018760676197493707 -0.0019333735935988699        6.1719032511700014e-14              2.091364065776958e-12       
                    -9.0840124488737137e-20                      25                                      83.403893258806463              -1.5474333073758588e-13             0                                 5.9691372391439723e-28                  0.0043160049673164579                         0.0043160049673164579                           0.004526904217773184                          6.2999542740256233e-21                          4.4349430616066374e-26                    7.4765901807551299e-26        -1.1452271300879564e-19  2420.0206610688265   2420                 10                   0                    1.7382514533786749e-20    20                            0                           4                     0.99999637094782878  0.0018760676197493707 -0.0019333735935988699        0                                2.091364065776958e-12       
                    -9.0840133643524263e-20                      26                                      81.551537673737599              -1.5146184328086841e-13            -9.1547871249326836e-27               6.3914042371891466e-28                  0.0042050066279992835                         0.0043160049673164579                           0.004526904217773184                          6.2999521548358027e-21                          4.7361454001388409e-26                    7.6712499039057614e-26        -1.1452272338357213e-19  2420.0206610688265   2420                 10                   0                    1.7382512872118612e-20    21                            1                           4                     0.99999620275753587  0.001938692887397121 -0.0019584109235865591        6.4565562481239383e-14              2.1559296282581977e-12       
                    -9.0840142104542987e-20                      27                                      90.411197795921296              -1.4816020136061973e-13            -8.4610187293042161e-27               6.5715101193476129e-28                  0.0046429600122250029                         0.0046429600122250029                           0.0046429600122250029                          6.2999501491929533e-21                          5.0282317919827118e-26                    7.8443327261867325e-26        -1.145227330288579e-19  2420.0206610688265   2420                 10                   0                    1.7382511392325771e-20    22                            2                           4                     0.99999604357891525  0.0019975958240666682 -0.0019803643052669459        6.0967148413279432e-14              2.2168967766714769e-12       
                    -9.0840149750098633e-20                      28                                      83.525455618742555              -1.4466846395407002e-13            -7.6455556481521413e-27               6.3265993874815878e-28                  0.0045304137853403982                         0.0046429600122250029                           0.0046429600122250029                          6.2999483043155532e-21                          5.303154139277204e-26                    7.9936234130199062e-26        -1.1452274177217475e-19  2420.0206610688265   2420                 10                   0                    1.7382510117325102e-20    23                            3                           4                     0.99999589715948367  0.002051505062423022 -0.0019990971301075962        5.6036439096443778e-14              2.2729332157679207e-12       
                    -9.084015783359439e-20                      29                                      75.590404980282017              -1.4151024852516217e-13            -8.0834957574063549e-27               6.4731793540221965e-28                  0.0040865460522244825                         0.0046429600122250029                           0.0046429600122250029                          6.2999462895949804e-21                          5.6100805600809525e-26                    8.1460324507135382e-26        -1.145227511476752e-19  2420.0206610688265   2420                 10                   0                    1.738250881603777e-20    24                            4                           4                     0.99999573726035629  0.0021100122711363461 -0.0020180882673993148        6.1081893044219185e-14              2.3340151088121398e-12       
                    -8.9893697068127418e-20                      30                                      75.613662261063325              -1.4149802892508394e-13             0                                 6.4731793540221965e-28                  0.0040865460522244825                         0.0040865460522244825                           0.0046429600122250029                          6.2999462895949804e-21                          5.6100805600809525e-26                    8.1460324507135382e-26        -1.135762903822082e-19  2400.020833242912    2400                 10                   0                    1.738250881603777e-20    25                            0                           5                     0.99999573726035629  0.0021100122711363461 -0.0020180882673993148        0                                2.3340151088121398e-12       
                    -8.9893704716176277e-20                      31                                      85.253321804477252              -1.3838705729723446e-13            -7.6480488606889615e-27               6.3956929203048714e-28                  0.0043562289565738871                         0.0043562289565738871                           0.0046429600122250029                          6.2999443337540191e-21                          5.9124203057525813e-26                    8.2870299849599766e-26        -1.1357629930525414e-19  2400.020833242912    2400                 10                   0                    1.7382507621251641e-20    26                            1                           5                     0.99999558203420991  0.002166122072488725 -0.0020354806282564101        5.9052391756059592e-14              2.3930675005681994e-12       
                    -8.989371182760165e-20                      32                                      80.947818216381151              -1.3520762298971319e-13            -7.1114253772127552e-27               6.0461434128655846e-28                  0.0042549680042790325                         0.0043562289565738871                           0.0046429600122250029                          6.2999424834717983e-21                          6.2043820655694342e-26                    8.4109898012020517e-26        -1.1357630764497571e-19  2400.020833242912    2400                 10                   0                    1.7382506575569241e-20    27                            2                           5                     0.99999543518575507  0.0022189885896197214 -0.0020506213385021606        5.5932600333007673e-14              2.449000100901207e-12       
                    -8.9893719550820505e-20                      33                                      70.599344251082172              -1.324806025534705e-13            -7.7232188464274723e-27               6.3125625591483917e-28                  0.0039489160894150711                         0.0043562289565738871                           0.0046429600122250029                          6.2999404065594028e-21                          6.5388956964317161e-26                    8.5393530524605421e-26        -1.1357631685464875e-19  2400.020833242912    2400                 10                   0                    1.7382505483525107e-20    28                            3                           5                     0.99999527035067137  0.0022780102153437307 -0.0020662192831255141        6.278306156742237e-14              2.5117831624686296e-12       
                    -8.98937269256291e-20                      34                                      80.633906418220306              -1.2978911647794591e-13            -7.3748085969123187e-27               6.5636051508593e-28                  0.0040417156800290023                         0.0043562289565738871                           0.0046429600122250029                          6.2999383823587641e-21                          6.8720581637474472e-26                    8.6531271167132735e-26        -1.1357632572432052e-19  2400.020833242912    2400                 10                   0                    1.7382504508119329e-20    29                            4                           5                     0.9999951096990547   0.0023353093431984664 -0.0020799498413664342        6.1349528640216875e-14              2.5731326911088463e-12       
                    -8.8947266754126808e-20                      35                                      80.649230019730666              -1.2966924540992708e-13             0                                 6.5636051508593e-28                  0.0040417156800290023                         0.0040417156800290023                           0.0046429600122250029                          6.2999383823587641e-21                          6.8720581637474472e-26                    8.6531271167132735e-26        -1.1262986555281821e-19  2380.0210083106413   2380                 10                   0                    1.7382504508119329e-20    30                            0                           6                     0.9999951096990547   0.0023353093431984664 -0.0020799498413664342        0                                2.5731326911088463e-12       
                    -8.8947273217259329e-20                      36                                      81.232566291625631              -1.2666545819941735e-13            -6.4631325288607978e-27               6.2536134949361564e-28                  0.0040103201040734143                         0.0040417156800290023                           0.0046429600122250029                          6.2999365833473668e-21                          7.171695460585079e-26                    8.7486270889712475e-26        -1.1262987332003653e-19  2380.0210083106413   2380                 10                   0                    1.7382503690842976e-20    31                            1                           6                     0.99999496691966416  0.0023857039541936467 -0.0020913701902517006        5.4479581226515204e-14              2.6276122723353617e-12       