# ODT 1.0
# Table Start
# Title: mmArchive Data Table, Wed Jun 11 15:43:19 EDT 2014
# Columns: {Oxs_EulerEvolve:evolver:Total energy} {Oxs_EulerEvolve:evolver:Energy calc count} {Oxs_EulerEvolve:evolver:Max dm/dt} Oxs_EulerEvolve:evolver:dE/dt {Oxs_EulerEvolve:evolver:Delta E} Oxs_Exchange6Ngbr:DyFeYFe:Energy {Oxs_Exchange6Ngbr:DyFeYFe:Max Spin Ang} {Oxs_Exchange6Ngbr:DyFeYFe:Stage Max Spin Ang} {Oxs_Exchange6Ngbr:DyFeYFe:Run Max Spin Ang} Southampton_UniaxialAnisotropy4:xAnis:Energy Southampton_UniaxialAnisotropy4:yAnis:Energy Oxs_UniaxialAnisotropy:neg:Energy Oxs_UZeeman::Energy  Oxs_UZeeman::B       Oxs_UZeeman::Bx      Oxs_UZeeman::By      Oxs_UZeeman::Bz      Oxs_Demag::Energy    Oxs_TimeDriver::Iteration {Oxs_TimeDriver::Stage iteration} Oxs_TimeDriver::Stage Oxs_TimeDriver::mx   Oxs_TimeDriver::my   Oxs_TimeDriver::mz   {Oxs_TimeDriver::Last time step} {Oxs_TimeDriver::Simulation time}
# Units:                     J                                        {}                                    deg/ns                             J/s                              J                                J                                   deg                                         deg                                           deg                                           J                                            J                                       J                          J                 mT                   mT                   mT                   mT                     J                       {}                            {}                          {}                   {}                   {}                   {}                          s                                 s                
                    -9.3995521957090167e-20                      1                                       90.166768344549084              -3.3305299310666804e-13             0                                 0                                    0                                           0                                             0                                            6.9300000000000008e-21                          0                                      0                          -1.1830810000000003e-19  2500.0199999200008   2500                 10                   0                    1.7382578042909867e-20    0                             0                           0                     1                    0                    0                          0                                0                         
                    -9.3995557172283964e-20                      2                                       88.336438038214609              -3.1953000188860899e-13            -3.5215193806691339e-26               0                                    0                                           0                                             0                                            6.9299997697092373e-21                          7.6763587494665028e-29                    4.8738785681205059e-28        -1.183081351355078e-19  2500.0199999200008   2500                 10                   0                    1.7382577629363157e-20    1                             1                           0                     0.99999998476912921  7.8053495822740903e-05 -0.00015610699164548181        1.1090560506491233e-13              1.1090560506491233e-13       
                    -9.3995598874463804e-20                      3                                       86.236051206769503              -3.0331549661899678e-13            -4.1702179834881017e-26               3.1411597630832855e-32                  5.8752771694203231e-05                         5.8752771694203231e-05                           5.8752771694203231e-05                          6.9299988609548356e-21                          4.1090569045708963e-28                    2.3611157837549497e-27        -1.1830817654682204e-19  2500.0199999200008   2500                 10                   0                    1.7382576039350526e-20    2                             2                           0                     0.99999992466632126  0.00018058654990232747 -0.00034359245339801888        1.386320063311404e-13              2.4953761139605275e-13       
                    -9.3995647561243147e-20                      4                                       83.688237331466951              -2.8409763794249808e-13            -4.8686779342739109e-26               3.7350296473755667e-31                  0.0001978487439000011                         0.0001978487439000011                           0.0001978487439000011                          6.9299968245636306e-21                          1.2575354045636205e-27                    6.4045376906671954e-27        -1.1830822465574569e-19  2500.0199999200008   2500                 10                   0                    1.738257260749232e-20    3                             3                           0                     0.99999978998433758  0.000315917294872526 -0.00056588565188865549        1.7329000791392552e-13              4.2282761930997827e-13       
                    -9.3995703378739134e-20                      5                                       80.710005037306146              -2.6166766588896932e-13            -5.5817495992142545e-26               1.6908858222155755e-30                  0.00036808849368773493                         0.00036808849368773493                           0.00036808849368773493                          6.9299930043860478e-21                          3.088964156809102e-27                    1.3603799057542192e-26        -1.1830827957312899e-19  2500.0199999200008   2500                 10                   0                    1.7382566495549697e-20    4                             4                           0                     0.99999953732697677  0.00049512902170012333 -0.00082473497330571926        2.1661250989240688e-13              6.394401292023851e-13       
                    -9.3049239016642865e-20                      6                                       80.765208252879319              -2.6203073360186922e-13             0                                 1.6908858222155755e-30                  0.00036808849368773493                         0.00036808849368773493                           0.00036808849368773493                          6.9299930043860478e-21                          3.088964156809102e-27                    1.3603799057542192e-26        -1.1736181521103272e-19  2480.0201612083724   2480                 10                   0                    1.7382566495549697e-20    5                             0                           1                     0.99999953732697677  0.00049512902170012333 -0.00082473497330571926        0                                6.394401292023851e-13       
                    -9.3049301691045192e-20                      7                                       77.256366264981438              -2.3653037836421617e-13            -6.2674402327924338e-26               4.8712682861239288e-30                  0.00062546138788336519                         0.00062546138788336519                           0.00062546138788336519                          6.9299864791382261e-21                          6.7553986212444791e-27                    2.5046626548783473e-26        -1.1736187675649359e-19  2480.0201612083724   2480                 10                   0                    1.7382556779413716e-20    6                             1                           1                     0.999999105762577    0.00073221034690143061 -0.0011190721756731525        2.707656373655086e-13              9.102057665678937e-13       
                    -9.3049369865975049e-20                      8                                       77.242412203758406              -2.0846964160818134e-13            -6.8174929849330982e-26               3.3686608310862352e-29                  0.0011919374003847062                         0.0011919374003847062                           0.0011919374003847062                          6.9299760487832456e-21                          1.3771603349630781e-26                    4.1503338551537473e-26        -1.1736194402605131e-19  2480.0201612083724   2480                 10                   0                    1.7382542802664503e-20    7                             2                           1                     0.99999841592314487  0.0010454396217907838 -0.0014405341183266317        3.3845704670688575e-13              1.2486628132747795e-12       
                    -9.3049409575979598e-20                      10                                      82.729998352390979              -1.9387178276287672e-13            -3.9710004553836378e-26               2.072753936927899e-28                  0.0029293426423443714                         0.0029293426423443714                           0.0029293426423443714                          6.9299686916609062e-21                          1.9705544100357152e-26                    5.154768595010408e-26        -1.1736198398494733e-19  2480.0201612083724   2480                 10                   0                    1.7382534256801371e-20    8                             3                           1                     0.99999792933979392  0.0012505505012438138 -0.001605381219975384        2.115356541918036e-13              1.4601984674665831e-12       
                    -9.3049427549332477e-20                      12                                      89.496567150608769              -1.8805134192330014e-13            -1.7973352873822025e-26               3.3873176328770541e-28                  0.0038525273763059301                         0.0038525273763059301                           0.0038525273763059301                          6.9299651219259254e-21                          2.2895988452847591e-26                    5.592724050534927e-26        -1.1736200236721347e-19  2480.0201612083724   2480                 10                   0                    1.7382530533994355e-20    9                             4                           1                     0.99999769324552135  0.0013479459374803708 -0.001672205496769656        9.8997812693894166e-14              1.5591962801604773e-12       
                    -9.2102964932594391e-20                      13                                      89.620025407907278              -1.8834714242350019e-13             0                                 3.3873176328770541e-28                  0.0038525273763059301                         0.0038525273763059301                           0.0038525273763059301                          6.9299651219259254e-21                          2.2895988452847591e-26                    5.592724050534927e-26        -1.164155397504754e-19  2460.0203251192866   2460                 10                   0                    1.7382530533994355e-20    10                            0                           2                     0.99999769324552135  0.0013479459374803708 -0.001672205496769656        0                                1.5591962801604773e-12       
                    -9.210297799412716e-20                      15                                      94.646426897878243              -1.8370097360061901e-13            -1.3061532767653035e-26               3.8062966341205672e-28                  0.0044888972697210367                         0.0044888972697210367                           0.0044888972697210367                          6.9299624089478438e-21                          2.5423264051321082e-26                    5.9092889897520072e-26        -1.1641555315756515e-19  2460.0203251192866   2460                 10                   0                    1.7382527857706546e-20    11                            1                           2                     0.99999751381518087  0.0014204166800265063 -0.0017188573395360328        7.3644180431830305e-14              1.6328404605923076e-12       
                    -9.2102990657532774e-20                      16                                      78.091286775624198              -1.7935222143751257e-13            -1.2663405621904988e-26               4.3941102119996566e-28                  0.0045592675754269609                         0.0045592675754269609                           0.0045592675754269609                          6.9299596496728168e-21                          2.8086896097719165e-26                    6.2164579978867764e-26        -1.164155662527867e-19  2460.0203251192866   2460                 10                   0                    1.738252525469402e-20    12                            2                           2                     0.99999733132281865  0.0014929816629034309 -0.0017629520031283161        7.3644180111835593e-14              1.7064846407041431e-12       
                    -9.2103000464021949e-20                      18                                      88.204692554316694              -1.7505875016621203e-13            -9.806489171373416e-27               4.283244747161902e-28                  0.0041162516356872516                         0.0045592675754269609                           0.0045592675754269609                          6.9299574569125039e-21                          3.0277161280570918e-26                    6.4488928696558354e-26        -1.1641557638592861e-19  2460.0203251192866   2460                 10                   0                    1.7382523270579712e-20    13                            3                           2                     0.99999718629845857  0.0015500702677820192 -0.0017956379982061784        5.791206033868367e-14              1.7643967010428269e-12       
                    -9.2103010039660807e-20                      19                                      89.563372476795323              -1.7092673563490721e-13            -9.5756388560103019e-27               4.2094287434328839e-28                  0.0042629962701655165                         0.0045592675754269609                           0.0045592675754269609                          6.9299552418558549e-21                          3.2546831562562011e-26                    6.6746223114061991e-26        -1.1641558633873284e-19  2460.0203251192866   2460                 10                   0                    1.7382521343218634e-20    14                            4                           2                     0.99999703979943921  0.00160714056246375 -0.0018267782526031424        5.7912060221458207e-14              1.8223087612642849e-12       
                    -9.1156548041386434e-20                      20                                      89.559265622954342              -1.7114523095687974e-13             0                                 4.2094287434328839e-28                  0.0042629962701655165                         0.0042629962701655165                           0.0045592675754269609                          6.9299552418558549e-21                          3.2546831562562011e-26                    6.6746223114061991e-26        -1.1546912434045849e-19  2440.0204917172318   2440                 10                   0                    1.7382521343218634e-20    15                            0                           3                     0.99999703979943921  0.00160714056246375 -0.0018267782526031424        0                                1.8223087612642849e-12       
                    -9.1156559497840809e-20                      21                                      80.144816374549947              -1.6733578851371854e-13            -1.1456454367081052e-26               4.9391219480209402e-28                  0.0043472096175792355                         0.0043472096175792355                           0.0045592675754269609                          6.9299524510813319e-21                          3.5465179663187034e-26                    6.9496935940236935e-26        -1.154691364024466e-19  2440.0204917172318   2440                 10                   0                    1.7382518997496655e-20    16                            1                           3                     0.999996855223653    0.0016776655629488376 -0.0018640156842977369        7.1834506087570318e-14              1.8941432673518555e-12       
                    -9.1156570883320561e-20                      22                                      86.839731704555874              -1.6393333561262678e-13            -1.1385479751925461e-26               5.9109607316030896e-28                  0.0041724593061001547                         0.0043472096175792355                           0.0045592675754269609                          6.9299495561015675e-21                          3.8590569493090038e-26                    7.2194687521527993e-26        -1.1546914851765895e-19  2440.0204917172318   2440                 10                   0                    1.7382516701883733e-20    17                            2                           3                     0.99999666375591001  0.0017499846704338055 -0.0018998783405616397        7.3767325654820557e-14              1.967910593006676e-12       
                    -9.1156580440418396e-20                      23                                      91.94508952028842               -1.6035783023556554e-13            -9.557097843758131e-27               6.0152630744178032e-28                  0.0043415830487689563                         0.0043472096175792355                           0.0045592675754269609                          6.9299470671390174e-21                          4.1358149232669613e-26                    7.4386271102003348e-26        -1.1546915870370085e-19  2440.0204917172318   2440                 10                   0                    1.7382514850196784e-20    18                            3                           3                     0.9999964991412349   0.0018116750478499584 -0.0019284766840523926        6.3064361391107899e-14              2.0309749543977839e-12       
                    -9.1156589593310203e-20                      24                                      83.747723252698961              -1.5681668635819706e-13            -9.1528918017627368e-27               6.0571463033954592e-28                  0.0043501756629858862                         0.0043501756629858862                           0.0045592675754269609                          6.9299446128197311e-21                          4.4158747634357065e-26                    7.6433795754879632e-26        -1.1546916852162387e-19  2440.0204917172318   2440                 10                   0                    1.7382513117235914e-20    19                            4                           3                     0.99999633681775479  0.001872028491844273 -0.0019548205149359384        6.18529756198328e-14              2.0928279300176167e-12       
                    -9.0210128260383248e-20                      25                                      83.629770724885049              -1.5693388928997156e-13             0                                 6.0571463033954592e-28                  0.0043501756629858862                         0.0043501756629858862                           0.0045592675754269609                          6.9299446128197311e-21                          4.4158747634357065e-26                    7.6433795754879632e-26        -1.1452270718869691e-19  2420.0206610688265   2420                 10                   0                    1.7382513117235914e-20    20                            0                           4                     0.99999633681775479  0.001872028491844273 -0.0019548205149359384        0                                2.0928279300176167e-12       
                    -9.0210137572406352e-20                      26                                      82.233561498116401              -1.536731026303275e-13            -9.3120230986858146e-27               6.4982968533191943e-28                  0.004247910607328341                         0.0043501756629858862                           0.0045592675754269609                          6.9299420214616188e-21                          4.7171959794293498e-26                    7.8506376091083487e-26        -1.1452271727037922e-19  2420.0206610688265   2420                 10                   0                    1.7382511348345671e-20    21                            1                           4                     0.99999616543077952  0.0019348080114866746 -0.001981177411849987        6.4723611947012725e-14              2.1575515419646293e-12       
                    -9.0210146146220148e-20                      27                                      91.117412093308587              -1.5036734692117934e-13            -8.5738137956668671e-27               6.6683772715550232e-28                  0.0046825558939447192                         0.0046825558939447192                           0.0046825558939447192                          6.9299395784201629e-21                          5.0082299173436038e-26                    8.0349874402110279e-26        -1.1452272659633538e-19  2420.0206610688265   2420                 10                   0                    1.7382509772683751e-20    22                            2                           4                     0.99999600385312071  0.0019936167314647752 -0.0020042865544407963        6.0841488785512645e-14              2.2183930307501419e-12       
                    -9.0210153917273783e-20                      28                                      83.806948771517298              -1.4687183759697929e-13            -7.7710536362087637e-27               6.4221065606574921e-28                  0.004565531086668238                         0.0046825558939447192                           0.0046825558939447192                          6.9299373230484107e-21                          5.2831063473908075e-26                    8.1953360064009319e-26        -1.1452273507054967e-19  2420.0206610688265   2420                 10                   0                    1.7382508403593285e-20    23                            3                           4                     0.99999585468751229  0.0020476218968884601 -0.0020241637878751812        5.608468169060885e-14              2.2744777124407509e-12       
                    -9.0210162149202887e-20                      29                                      76.248731158114708              -1.4372202511190243e-13            -8.231929106353393e-27               6.5818635134510509e-28                  0.0041144809652587204                         0.0046825558939447192                           0.0046825558939447192                          6.9299348543204991e-21                          5.5906714028698964e-26                    8.3602414701015803e-26        -1.1452274416686899e-19  2420.0206610688265   2420                 10                   0                    1.7382506996030527e-20    24                            4                           4                     0.99999569141093614  0.0021063565031785893 -0.0020444509959892656        6.1237109143755962e-14              2.3357148215845069e-12       
                    -8.9263701427130776e-20                      30                                      76.2753015842586                -1.4373909529760162e-13             0                                 6.5818635134510509e-28                  0.0041144809652587204                         0.0041144809652587204                           0.0046825558939447192                          6.9299348543204991e-21                          5.5906714028698964e-26                    8.3602414701015803e-26        -1.1357628344479688e-19  2400.020833242912    2400                 10                   0                    1.7382506996030527e-20    25                            0                           5                     0.99999569141093614  0.0021063565031785893 -0.0020444509959892656        0                                2.3357148215845069e-12       
                    -8.926370919131776e-20                      31                                      86.013690027502207              -1.4061776541826844e-13            -7.7641869790284112e-27               6.4933634754940018e-28                  0.0043937348518548799                         0.0043937348518548799                           0.0046825558939447192                          6.9299324658503329e-21                          5.892576122644641e-26                    8.512899404157661e-26        -1.1357629206356666e-19  2400.020833242912    2400                 10                   0                    1.7382505702306963e-20    26                            1                           5                     0.99999553344240899  0.0021624815018787265 -0.0020630341735013019        5.8966146479805915e-14              2.3946809680643125e-12       
                    -8.9263716440649227e-20                      32                                      81.29577160903618               -1.37435334383901e-13            -7.2493314740249853e-27               6.1474471703318209e-28                  0.0042901765187881727                         0.0043937348518548799                           0.0046825558939447192                          6.929930195222274e-21                          6.1855053359151137e-26                    8.6486290072162394e-26        -1.1357630014872888e-19  2400.020833242912    2400                 10                   0                    1.7382504556769231e-20    27                            2                           5                     0.99999538326768611  0.0022156084071699696 -0.0020793891244305354        5.608379283233263e-14              2.4507647608966452e-12       
                    -8.9263724320680163e-20                      33                                      71.209378811353218              -1.3472006646396758e-13            -7.8800309363098234e-27               6.4350205166405287e-28                  0.0039791375676389599                         0.0043937348518548799                           0.0046825558939447192                          6.9299276432307685e-21                          6.5215511002994381e-26                    8.7903546568547097e-26        -1.1357630907755089e-19  2400.020833242912    2400                 10                   0                    1.738250335108034e-20    28                            3                           5                     0.99999521448412043  0.0022749841947577246 -0.0020963673418434542        6.2991677100849391e-14              2.5137564379974946e-12       
                    -8.9263731816061746e-20                      34                                      81.44180335506681               -1.3201717923449216e-13            -7.4953815821913871e-27               6.6821206500908209e-28                  0.0040805205111110916                         0.0043937348518548799                           0.0046825558939447192                          6.929925165723224e-21                          6.854917798249379e-26                    8.9166280693421385e-26        -1.1357631763472681e-19  2400.020833242912    2400                 10                   0                    1.7382502269271097e-20    29                            4                           5                     0.99999505062673844  0.0023323923629742561 -0.0021113820385726305        6.1270975992230933e-14              2.5750274139897255e-12       
                    -8.8317271700469321e-20                      35                                      81.459548301571076              -1.3192888513730791e-13             0                                 6.6821206500908209e-28                  0.0040805205111110916                         0.0040805205111110916                           0.0046825558939447192                          6.929925165723224e-21                          6.854917798249379e-26                    8.9166280693421385e-26        -1.1262985751913439e-19  2380.0210083106413   2380                 10                   0                    1.7382502269271097e-20    30                            0                           6                     0.99999505062673844  0.0023323923629742561 -0.0021113820385726305        0                                2.5750274139897255e-12       
                    -8.8317278290289309e-20                      36                                      81.961191314917713              -1.2891206891920727e-13            -6.5898199867708636e-27               6.3719168919459e-28                  0.0040554767313082975                         0.0040805205111110916                           0.0046825558939447192                          6.9299229558127441e-21                          7.1557801138001472e-26                    9.0237027495084407e-26        -1.1262986503160967e-19  2380.0210083106413   2380                 10                   0                    1.7382501353487286e-20    31                            1                           6                     0.99999490446765948  0.002383053035560201 -0.0021239953931740919        5.4568103225265115e-14              2.6295955172149907e-12       