# ODT 1.0
# Table Start
# Title: mmArchive Data Table, Wed Jun 11 15:42:45 EDT 2014
# Columns: {Oxs_EulerEvolve:evolver:Total energy} {Oxs_EulerEvolve:evolver:Energy calc count} {Oxs_EulerEvolve:evolver:Max dm/dt} Oxs_EulerEvolve:evolver:dE/dt {Oxs_EulerEvolve:evolver:Delta E} Oxs_Exchange6Ngbr:DyFeYFe:Energy {Oxs_Exchange6Ngbr:DyFeYFe:Max Spin Ang} {Oxs_Exchange6Ngbr:DyFeYFe:Stage Max Spin Ang} {Oxs_Exchange6Ngbr:DyFeYFe:Run Max Spin Ang} Southampton_UniaxialAnisotropy4:xAnis:Energy Southampton_UniaxialAnisotropy4:yAnis:Energy Oxs_UniaxialAnisotropy:neg:Energy Oxs_UZeeman::Energy  Oxs_UZeeman::B       Oxs_UZeeman::Bx      Oxs_UZeeman::By      Oxs_UZeeman::Bz      Oxs_Demag::Energy    Oxs_TimeDriver::Iteration {Oxs_TimeDriver::Stage iteration} Oxs_TimeDriver::Stage Oxs_TimeDriver::mx   Oxs_TimeDriver::my   Oxs_TimeDriver::mz   {Oxs_TimeDriver::Last time step} {Oxs_TimeDriver::Simulation time}
# Units:                     J                                        {}                                    deg/ns                             J/s                              J                                J                                   deg                                         deg                                           deg                                           J                                            J                                       J                          J                 mT                   mT                   mT                   mT                     J                       {}                            {}                          {}                   {}                   {}                   {}                          s                                 s                
                    -9.2735521957090157e-20                      1                                       90.166768344549084              -3.3305299310666804e-13             0                                 0                                    0                                           0                                             0                                            8.1900000000000023e-21                          0                                      0                          -1.1830810000000003e-19  2500.0199999200008   2500                 10                   0                    1.7382578042909867e-20    0                             0                           0                     1                    0                    0                          0                                0                         
                    -9.2735557249047549e-20                      2                                       88.405117353452184              -3.2003323877051151e-13            -3.5291957393459833e-26               0                                    0                                           0                                             0                                            8.1899996929456509e-21                          7.6763587588199122e-29                    4.8738785681205059e-28        -1.183081351355078e-19  2500.0199999200008   2500                 10                   0                    1.7382577629363157e-20    1                             1                           0                     0.99999998476912921  7.8053495822740903e-05 -0.00015610699164548181        1.1090560506491233e-13              1.1090560506491233e-13       
                    -9.2735599132795024e-20                      3                                       86.38766135308866               -3.0439005350606658e-13            -4.1883747467325075e-26               3.1411597628778507e-32                  5.8752771692282567e-05                         5.8752771692282567e-05                           5.8752771692282567e-05                          8.1899984799100896e-21                          4.0979915772484255e-28                    2.3655766513506537e-27        -1.1830817642367767e-19  2500.0199999200008   2500                 10                   0                    1.7382576035565345e-20    2                             2                           0                     0.99999992459870968  0.00018034323313205469 -0.0003439168757299574        1.386320063311404e-13              2.4953761139605275e-13       
                    -9.2735648165596017e-20                      4                                       83.934225405252789              -2.8580060602105898e-13            -4.9032800993169537e-26               3.7410965921657304e-31                  0.00019800991459053129                         0.00019800991459053129                           0.00019800991459053129                          8.189995757420475e-21                          1.2505698666913943e-27                    6.432785711005886e-27        -1.1830822419026788e-19  2500.0199999200008   2500                 10                   0                    1.7382572583521691e-20    3                             3                           0                     0.99999978955454816  0.00031504112861739989 -0.0005671322352035394        1.7329000791392552e-13              4.2282761930997827e-13       
                    -9.2735704574932274e-20                      5                                       81.069391062316953              -2.6403037316630956e-13            -5.6409336258496536e-26               1.6979039499501737e-30                  0.00036902781683715137                         0.00036902781683715137                           0.00036902781683715137                          8.1899906396312112e-21                          3.0630381761402638e-27                    1.3710198527612357e-26        -1.1830827839474868e-19  2500.0199999200008   2500                 10                   0                    1.7382566405250587e-20    4                             4                           0                     0.99999953569580391  0.00049304674808886507 -0.000827953952718446        2.1661250989240688e-13              6.394401292023851e-13       
                    -9.1789240214379855e-20                      6                                       81.12578068475166               -2.6440295412736519e-13             0                                 1.6979039499501737e-30                  0.00036902781683715137                         0.00036902781683715137                           0.00036902781683715137                          8.1899906396312112e-21                          3.0630381761402638e-27                    1.3710198527612357e-26        -1.1736181403419626e-19  2480.0201612083724   2480                 10                   0                    1.7382566405250587e-20    5                             0                           1                     0.99999953569580391  0.00049304674808886507 -0.000827953952718446        0                                6.394401292023851e-13       
                    -9.1789303833245756e-20                      7                                       77.716796385053058              -2.3954998653930986e-13            -6.3618865902132952e-26               4.8982485017676372e-30                  0.0006259522228863341                         0.0006259522228863341                           0.0006259522228863341                          8.1899818740477635e-21                          6.6807926062367327e-27                    2.5359772052318677e-26        -1.1736187426636725e-19  2480.0201612083724   2480                 10                   0                    1.7382556513610819e-20    6                             1                           1                     0.99999910089451893  0.00072815567295117999 -0.0011260460855997913        2.707656373655086e-13              9.102057665678937e-13       
                    -9.1789373422469941e-20                      8                                       77.879391953223063              -2.1204076946411901e-13            -6.9589224184345553e-26               3.3515114154172551e-29                  0.001190960178126771                         0.001190960178126771                           0.001190960178126771                          8.1899678112689992e-21                          1.359042367778493e-26                    4.2294473912634327e-26        -1.1736193928319325e-19  2480.0201612083724   2480                 10                   0                    1.7382542131041619e-20    7                             2                           1                     0.99999840333452517  0.0010385393397155795 -0.0014541991429202845        3.3845704670688575e-13              1.2486628132747795e-12       
                    -9.1789414011211649e-20                      10                                      82.989488257386597              -1.9769425211562702e-13            -4.0588741707969582e-26               2.0516372042981549e-28                  0.0029226444475343137                         0.0029226444475343137                           0.0029226444475343137                          8.1899578429808139e-21                          1.943368545271026e-26                    5.2797839444649031e-26        -1.1736197748617471e-19  2480.0201612083724   2480                 10                   0                    1.7382533195293626e-20    8                             3                           1                     0.99999790887419004  0.0012418932413248759 -0.0016247329405005501        2.115356541918036e-13              1.4601984674665831e-12       
                    -9.1789432734351432e-20                      12                                      90.813186540419423              -1.9194477268185223e-13            -1.8723139784906611e-26               3.4437168772805632e-28                  0.0038939143800310119                         0.0038939143800310119                           0.0038939143800310119                          8.1899528887707635e-21                          2.2644247181271013e-26                    5.7531512998611841e-26        -1.173619953148679e-19  2480.0201612083724   2480                 10                   0                    1.7382529171613835e-20    9                             4                           1                     0.99999766312869165  0.0013405124118137917 -0.0016960200443418315        1.0097793201342728e-13              1.5611763994800103e-12       
                    -9.0842970146117868e-20                      13                                      90.939603826608987              -1.9227974914129529e-13             0                                 3.4437168772805632e-28                  0.0038939143800310119                         0.0038939143800310119                           0.0038939143800310119                          8.1899528887707635e-21                          2.2644247181271013e-26                    5.7531512998611841e-26        -1.1641553272663434e-19  2460.0203251192866   2460                 10                   0                    1.7382529171613835e-20    10                            0                           2                     0.99999766312869165  0.0013405124118137917 -0.0016960200443418315        0                                1.5611763994800103e-12       
                    -9.0842983620845148e-20                      15                                      95.40032310750891               -1.877255681705969e-13            -1.347472728412754e-26               3.9026194365202477e-28                  0.0045517948292986918                         0.0045517948292986918                           0.0045517948292986918                          8.1899491557289078e-21                          2.5165116993988045e-26                    6.0936979469097981e-26        -1.1641554556104764e-19  2460.0203251192866   2460                 10                   0                    1.7382526292115179e-20    11                            1                           2                     0.99999747795717753  0.001413185345182168 -0.0017454709806737361        7.4331169122558511e-14              1.635507568602569e-12       
                    -9.0842996694188694e-20                      16                                      77.728671558357689              -1.8348035937081631e-13            -1.3073343543593412e-26               4.5506037833378174e-28                  0.004625311474980031                         0.004625311474980031                           0.004625311474980031                          8.1899453533134155e-21                          2.7825037319061414e-26                    6.4259379040703928e-26        -1.1641555806305646e-19  2460.0203251192866   2460                 10                   0                    1.7382523476077608e-20    12                            2                           2                     0.99999728934443377  0.001486002408266459 -0.0017924105289036706        7.4331168861503435e-14              1.7098387374640724e-12       
                    -9.084300657760317e-20                      18                                      89.59375242319561               -1.7922819734893883e-13            -9.8834144738707453e-27               4.3861831597182302e-28                  0.004173442699156823                         0.004625311474980031                           0.004625311474980031                          8.189942406337217e-21                          2.9957152040951803e-26                    6.6722261821485246e-26        -1.1641556747592211e-19  2460.0203251192866   2460                 10                   0                    1.7382521373949557e-20    13                            3                           2                     0.99999714316434696  0.0015418532869854184 -0.0018264666099762465        5.6946051759667963e-14              1.7667847892237404e-12       
                    -9.0843016239744354e-20                      19                                      90.329524747116238              -1.7513406156161416e-13            -9.6621411815176565e-27               4.2607172168774503e-28                  0.0042938193345288447                         0.004625311474980031                           0.004625311474980031                          8.1899394267104302e-21                          3.2166465692869829e-26                    6.912739083735656e-26        -1.1641557670729588e-19  2460.0203251192866   2460                 10                   0                    1.738251932091285e-20    14                            4                           2                     0.99999699536464148  0.0015977190764963401 -0.0018590790205639226        5.694605166388716e-14              1.8237308408876273e-12       
                    -8.9896554283525959e-20                      20                                      90.330801652702661              -1.7540013421762684e-13             0                                 4.2607172168774503e-28                  0.0042938193345288447                         0.0042938193345288447                           0.004625311474980031                          8.1899394267104302e-21                          3.2166465692869829e-26                    6.912739083735656e-26        -1.1546911475107748e-19  2440.0204917172318   2440                 10                   0                    1.738251932091285e-20    15                            0                           3                     0.99999699536464148  0.0015977190764963401 -0.0018590790205639226        0                                1.8237308408876273e-12       
                    -8.9896565951031934e-20                      21                                      80.714439935454493              -1.7161688478374233e-13            -1.1667505976857231e-26               4.9485653133127716e-28                  0.0043576760890938968                         0.0043576760890938968                           0.004625311474980031                          8.1899356398321174e-21                          3.5029438668902671e-26                    7.2096661474711413e-26        -1.1546912600121075e-19  2440.0204917172318   2440                 10                   0                    1.7382516789390036e-20    16                            1                           3                     0.99999680752243614  0.0016673255311410477 -0.0018985618793206378        7.1182564579858947e-14              1.8949134054674865e-12       
                    -8.9896577746088507e-20                      22                                      87.882259913747092              -1.6827066630969108e-13            -1.1795056575670063e-26               5.9653232573569859e-28                  0.004193780264132101                         0.0043576760890938968                           0.004625311474980031                          8.1899316381287566e-21                          3.8150671313497202e-26                    7.5082239814817218e-26        -1.1546913746271849e-19  2440.0204917172318   2440                 10                   0                    1.7382514249057766e-20    17                            2                           3                     0.99999660902410203  0.0017399787421805638 -0.0019375012616579933        7.4343229258721115e-14              1.9692566347262074e-12       
                    -8.9896587677147722e-20                      23                                      93.070186361306853              -1.6475091521115754e-13            -9.931059216478618e-27               6.1186949198452466e-28                  0.0043800873155046566                         0.0043800873155046566                           0.004625311474980031                          8.189928182051749e-21                          4.092638417681302e-26                    7.7533668193096475e-26        -1.1546914710800888e-19  2440.0204917172318   2440                 10                   0                    1.7382512176887546e-20    18                            3                           3                     0.99999643759066825  0.0018021902202745054 -0.0019688540264167676        6.3742290637059233e-14              2.0329989253632669e-12       
                    -8.9896597188380341e-20                      24                                      84.163846936648241              -1.612613872741828e-13            -9.5112326214950844e-27               6.2071813013469303e-28                  0.0044103187040347271                         0.0044103187040347271                           0.004625311474980031                          8.1899247712500263e-21                          4.3737213826029651e-26                    7.9839525078669839e-26        -1.1546915638179973e-19  2440.0204917172318   2440                 10                   0                    1.7382510224712316e-20    19                            4                           3                     0.99999626840299427  0.0018630687073845464 -0.0019978990629918019        6.2484423337297367e-14              2.0954833487005641e-12       
                    -8.8950135920205558e-20                      25                                      84.049260425896392              -1.614334701353035e-13             0                                 6.2071813013469303e-28                  0.0044103187040347271                         0.0044103187040347271                           0.004625311474980031                          8.1899247712500263e-21                          4.3737213826029651e-26                    7.9839525078669839e-26        -1.1452269511362494e-19  2420.0206610688265   2420                 10                   0                    1.7382510224712316e-20    20                            0                           4                     0.99999626840299427  0.0018630687073845464 -0.0019978990629918019        0                                2.0954833487005641e-12       
                    -8.8950145585445406e-20                      26                                      83.576957562444676              -1.5823030556602556e-13            -9.6652398528219712e-27               6.7031183076870071e-28                  0.004329880161066427                         0.0044103187040347271                           0.004625311474980031                          8.1899211737468521e-21                          4.6757776481296991e-26                    8.218291510831565e-26        -1.1452270459559144e-19  2420.0206610688265   2420                 10                   0                    1.7382508225395762e-20    21                            1                           4                     0.99999608995422284  0.001926289906270926 -0.0020270383361145352        6.5233714751091195e-14              2.1607170634516552e-12       
                    -8.8950154408270039e-20                      27                                      92.516037118818673              -1.5492618711308745e-13            -8.8228246311762198e-27               6.8625605569182418e-28                  0.0047615014299466725                         0.0047615014299466725                           0.0047615014299466725                          8.18991781178632e-21                          4.9649048982897445e-26                    8.4264180783845575e-26        -1.1452271326697052e-19  2420.0206610688265   2420                 10                   0                    1.7382506447428341e-20    22                            2                           4                     0.99999592318914299  0.0019849707779050706 -0.0020525273338873116        6.0708369993390587e-14              2.2214254334450459e-12       
                    -8.8950162445403451e-20                      28                                      84.319172141017219              -1.5142898720613577e-13            -8.037133403882991e-27               6.6173470920577702e-28                  0.0046356572797706542                         0.0047615014299466725                           0.0047615014299466725                          8.1899146891345363e-21                          5.2395539634886171e-26                    8.6100439378930588e-26        -1.1452272117253195e-19  2420.0206610688265   2420                 10                   0                    1.7382504880280244e-20    23                            3                           4                     0.99999576829457459  0.0020391607160529803 -0.0020747480841130932        5.6227456064865389e-14              2.2776528895099113e-12       
                    -8.8950170985982448e-20                      29                                      77.576536350307038              -1.4830136180214682e-13            -8.5405790032630214e-27               6.8050094786003242e-28                  0.0041692013943769373                         0.0047615014299466725                           0.0047615014299466725                          8.189911257899416e-21                          5.5480001121952047e-26                    8.8012509595517364e-26        -1.1452272966595178e-19  2420.0206610688265   2420                 10                   0                    1.7382503249058242e-20    24                            4                           4                     0.99999559809313354  0.0020982971366435314 -0.0020976832334344696        6.1552417209092115e-14              2.3392053067190033e-12       
                    -8.8003710352232353e-20                      30                                      77.638815462459419              -1.4837916945912685e-13             0                                 6.8050094786003242e-28                  0.0041692013943769373                         0.0041692013943769373                           0.0047615014299466725                          8.189911257899416e-21                          5.5480001121952047e-26                    8.8012509595517364e-26        -1.1357626903220166e-19  2400.020833242912    2400                 10                   0                    1.7382503249058242e-20    25                            0                           5                     0.99999559809313354  0.0020982971366435314 -0.0020976832334344696        0                                2.3392053067190033e-12       
                    -8.8003718352775383e-20                      31                                      87.531976570850617              -1.4523757439057108e-13            -8.0005430365588395e-27               6.6907623585805371e-28                  0.0044690862460622328                         0.0044690862460622328                           0.0047615014299466725                          8.1899079627853815e-21                          5.8484379763038587e-26                    8.9781614195097477e-26        -1.1357627700020674e-19  2400.020833242912    2400                 10                   0                    1.7382501749575783e-20    26                            1                           5                     0.99999543464373508  0.0021543623961859525 -0.0021186619425743315        5.8760834437308168e-14              2.3979661411563115e-12       
                    -8.8003725890682258e-20                      32                                      82.349485625291479              -1.420539757987005e-13            -7.5379068670656589e-27               6.3540720749930781e-28                  0.0043604202504573409                         0.0044690862460622328                           0.0047615014299466725                          8.189904797031254e-21                          6.1429444351308036e-26                    9.1388201904527903e-26        -1.1357628453328918e-19  2400.020833242912    2400                 10                   0                    1.7382500392522205e-20    27                            2                           5                     0.99999527761100404  0.002207968608947813 -0.0021375073364647522        5.6401006606542112e-14              2.4543671477628538e-12       
                    -8.8003734097435882e-20                      33                                      72.553155693040551              -1.3936793823996028e-13            -8.2067536330059757e-27               6.6864917289567909e-28                  0.0040387016769760356                         0.0044690862460622328                           0.0047615014299466725                          8.1899012308642179e-21                          6.4815562152225163e-26                    9.3089181703266446e-26        -1.13576292847205e-19  2400.020833242912    2400                 10                   0                    1.7382498945511855e-20    28                            3                           5                     0.99999510071630759  0.0022679916932158819 -0.0021573187148458488        6.341093428545568e-14              2.5177780820483094e-12       
                    -8.8003741874054997e-20                      34                                      83.118227586493262              -1.3666636509357155e-13            -7.7766191163018463e-27               6.9503799017057783e-28                  0.0041664814406157102                         0.0044690862460622328                           0.0047615014299466725                          8.1898977804895264e-21                          6.816293391174806e-26                    9.4621917143209183e-26        -1.1357630076828776e-19  2400.020833242912    2400                 10                   0                    1.7382497633854193e-20    29                            4                           5                     0.99999492956527714  0.0023258061917343833 -0.0021750171053625754        6.1384279958616154e-14              2.5791623620069255e-12       
                    -8.7057281873042993e-20                      35                                      83.139910199281104              -1.3664379503305389e-13             0                                 6.9503799017057783e-28                  0.0041664814406157102                         0.0041664814406157102                           0.0047615014299466725                          8.1898977804895264e-21                          6.816293391174806e-26                    9.4621917143209183e-26        -1.1262984076727575e-19  2380.0210083106413   2380                 10                   0                    1.7382497633854193e-20    30                            0                           6                     0.99999492956527714  0.0023258061917343833 -0.0021750171053625754        0                                2.5791623620069255e-12       
                    -8.7057288735334101e-20                      36                                      83.458775614100276              -1.336070126337679e-13            -6.8622911095774286e-27               6.6447853420527855e-28                  0.0041563636800630004                         0.0041664814406157102                           0.0047615014299466725                          8.1898946897231484e-21                          7.1195881030756022e-26                    9.5940227967342144e-26        -1.126298477330389e-19  2380.0210083106413   2380                 10                   0                    1.7382496507394115e-20    31                            1                           6                     0.99999477625207212  0.0023770142742969972 -0.0021900896927804529        5.4825342864307314e-14              2.6339877048712328e-12       