# ODT 1.0
# Table Start
# Title: mmArchive Data Table, Tue Mar 29 2:28:40 AM Eastern Daylight Time 2011
# Columns: {Oxs_SemiAnalyticEvolve:evolver:Total energy} {Oxs_SemiAnalyticEvolve:evolver:Energy calc count} {Oxs_SemiAnalyticEvolve:evolver:Max dm/dt} Oxs_SemiAnalyticEvolve:evolver:dE/dt {Oxs_SemiAnalyticEvolve:evolver:Delta E} Oxs_UniformExchange::Energy {Oxs_UniformExchange::Max Spin Ang} {Oxs_UniformExchange::Stage Max Spin Ang} {Oxs_UniformExchange::Run Max Spin Ang} Oxs_Demag::Energy    Oxs_FixedZeeman::Energy Oxs_TimeDriver::Iteration {Oxs_TimeDriver::Stage iteration} Oxs_TimeDriver::Stage Oxs_TimeDriver::mx   Oxs_TimeDriver::my   Oxs_TimeDriver::mz   {Oxs_TimeDriver::Last time step} {Oxs_TimeDriver::Simulation time}
# Units:                         J                                               {}                                           deg/ns                                   J/s                                     J                                  J                              deg                                    deg                                      deg                           J                       J                       {}                            {}                          {}                   {}                   {}                   {}                          s                                 s                
                        5.9032504483249117e-018                              1                                              1716.1684122384881                     -1.7647603935138825e-010                    0                                 9.3048456660654973e-020             5.7772977132570063                     5.7772977132570063                       5.7772977132570063             5.4283584681967329e-019   5.2673661448445834e-018      0                             0                           0                     0.96692360089711782  0.12539467732003098  1.2574218998954188e-015        0                                0                         
                        5.9032504473480207e-018                              6                                              1716.168289696833                      -1.7647601495851426e-010                   -9.7689792064557014e-028               9.3048455956029284e-020             5.7772975616409026                     5.7772977132570063                       5.7772977132570063             5.4283584672846327e-019   5.2673661446635282e-018      1                             1                           0                     0.96692360087049178  0.1253946772784692   1.6102543588627446e-009        5.5355872606981816e-018              5.5355872606981816e-018       
                        5.9032504434404191e-018                              11                                             1716.1677995111081                     -1.7647591739063926e-010                   -3.9075927606063538e-027               9.3048453137363632e-020             5.7772969549225381                     5.7772977132570063                       5.7772977132570063             5.4283584636387067e-019   5.2673661439391844e-018      2                             2                           0                     0.9669236007639731   0.12539467711220137  8.0512664356360055e-009        2.2142349042792726e-017              2.7677936303490907e-017       
# Table End
