# ODT 1.0
# Table Start
# Title: mmArchive Data Table, Wed Jun 11 23:40:02 EDT 2014
# Columns: {Oxs_SemiAnalyticEvolve:evolver:Total energy} {Oxs_SemiAnalyticEvolve:evolver:Energy calc count} {Oxs_SemiAnalyticEvolve:evolver:Max dm/dt} Oxs_SemiAnalyticEvolve:evolver:dE/dt {Oxs_SemiAnalyticEvolve:evolver:Delta E} Oxs_UniformExchange::Energy {Oxs_UniformExchange::Max Spin Ang} {Oxs_UniformExchange::Stage Max Spin Ang} {Oxs_UniformExchange::Run Max Spin Ang} Oxs_Demag::Energy    Oxs_FixedZeeman::Energy Oxs_TimeDriver::Iteration {Oxs_TimeDriver::Stage iteration} Oxs_TimeDriver::Stage Oxs_TimeDriver::mx   Oxs_TimeDriver::my   Oxs_TimeDriver::mz   {Oxs_TimeDriver::Last time step} {Oxs_TimeDriver::Simulation time}
# Units:                         J                                               {}                                           deg/ns                                   J/s                                     J                                  J                              deg                                    deg                                      deg                           J                       J                       {}                            {}                          {}                   {}                   {}                   {}                          s                                 s                
                        5.8994138013363054e-18                              1                                              904.15623210722788                     -9.326657848636525e-11                    0                                 9.0655783057668307e-20             5.0533672270450358                     5.0533672270450358                       5.0533672270450358             5.4232466403547343e-19   5.2664333542431641e-18      0                             0                           0                     0.9666329963089898   0.12604513110877552  1.2630829935236887e-15        0                                0                         
                        5.8994138003563506e-18                              6                                              904.15608233447176                     -9.3266559161897369e-11                   -9.7995493779285955e-28               9.0655782678521336e-20             5.0533669756264281                     5.0533672270450358                       5.0533672270450358             5.4232466378611904e-19   5.2664333538917104e-18      1                             1                           0                     0.96663299625709809  0.12604513102927251  3.0354229018342858e-09        1.0507033699097872e-17              1.0507033699097872e-17       
                        5.8994137964365331e-18                              11                                             904.15548327547833                     -9.3266481871414673e-11                   -3.9198178966334485e-27               9.0655781161977858e-20             5.0533659691478316                     5.0533672270450358                       5.0533672270450358             5.423246627889588e-19   5.2664333524855959e-18      2                             2                           0                     0.96663299604948816  0.12604513071118661  1.5177108261178373e-08        4.2028134796391486e-17              5.2535168495489356e-17       
                        5.899413780757294e-18                              16                                             904.15308755283888                     -9.3266172827705709e-11                   -1.5679239132858448e-26               9.0655775096514999e-20             5.0533619303663695                     5.0533672270450358                       5.0533672270450358             5.423246588044318e-19   5.2664333468563469e-18      3                             3                           0                     0.96663299521835788  0.12604512943766197  6.37438305675907e-08        1.6811253918556595e-16              2.206477076810553e-16       
                        5.8994137180408545e-18                              21                                             904.1435128752338                      -9.3264938544328235e-11                   -6.2716438912757867e-26               9.0655750846040102e-20             5.0533455693690419                     5.0533672270450358                       5.0533672270450358             5.4232464293214845e-19   5.2664333242626664e-18      4                             4                           0                     0.96663299188278973  0.12604512432466697  2.5801041367284097e-07        6.7245015674226378e-16              8.9309786442331906e-16       
# Table End
