# ODT 1.0
# Table Start
# Title: mmArchive Data Table, Wed Jun 11 23:39:59 EDT 2014
# Columns: {Oxs_SpinXferEvolve:evolve:Total energy} {Oxs_SpinXferEvolve:evolve:Energy calc count} {Oxs_SpinXferEvolve:evolve:Max dm/dt} Oxs_SpinXferEvolve:evolve:dE/dt {Oxs_SpinXferEvolve:evolve:Delta E} {Oxs_SpinXferEvolve:evolve:average J} Oxs_UniformExchange::Energy {Oxs_UniformExchange::Max Spin Ang} {Oxs_UniformExchange::Stage Max Spin Ang} {Oxs_UniformExchange::Run Max Spin Ang} Oxs_Demag::Energy    Oxs_TimeDriver::Iteration {Oxs_TimeDriver::Stage iteration} Oxs_TimeDriver::Stage Oxs_TimeDriver::mx   Oxs_TimeDriver::my   Oxs_TimeDriver::mz   {Oxs_TimeDriver::Last time step} {Oxs_TimeDriver::Simulation time}
# Units:                      J                                          {}                                      deg/ns                               J/s                                J                                  A/m^2                              J                              deg                                    deg                                      deg                           J                       {}                            {}                          {}                   {}                   {}                   {}                          s                                 s                
                      1.4895510558861313e-18                        1                                         0.00012598149219735441               -1.9692692308310941e-24               0                                    0                                1.6328055610670579e-19             5.2468329953978845                     5.2468329953978845                       5.2468329953978845             1.3262704997794255e-18    0                             0                           0                    -0.68882979792736587  0.68882979792738852  0                          0                                0                         
                      1.489551061862638e-18                        19                                        52.525910134144318                 1.2849095365741978e-13               5.9765067708246175e-27                  139530884816.19308               1.6326740842421833e-19             5.2466183440984322                     5.2468329953978845                       5.2468329953978845             1.3262836534384198e-18    1                             1                           0                    -0.68878349428316443  0.68887902165209425 -9.9575596950689491e-07        1.8604117975492411e-13              1.8604117975492411e-13       
                      1.4895512546044325e-18                        25                                        126.07209584638296                 1.7786339280964225e-12               1.9274179434632812e-25                  335093448002.31091               1.6320476828441761e-19             5.2455957388213319                     5.2468329953978845                       5.2468329953978845             1.3263464863200149e-18    2                             2                           0                    -0.68856277298277002  0.68911356666713008 -5.9454707631296079e-06        2.6075008424815705e-13              4.4679126400308116e-13       
                      1.4895755097978822e-18                        31                                        418.27984749416049                 6.5497758854404346e-11               2.4255193449820886e-23                  1117343700746.782                1.6244173679539632e-19             5.2331082882106994                     5.2468329953978845                       5.2468329953978845             1.327133773002486e-18    3                             3                           0                    -0.68586049941937399  0.69197235879734842 -7.5026784487394827e-05        1.0430003369926282e-12              1.4897916009957093e-12       
                      1.4943337569995315e-18                        37                                        1521.5939007475579                 3.2614640191575328e-09               4.7582472016492665e-21                  4246344711724.666                1.5181144782238687e-19             5.0592050550759495                     5.2468329953978845                       5.2468329953978845             1.3425223091771447e-18    4                             4                           0                    -0.64556222937868002  0.73199022605610609 -0.0015646547420668775        4.1720013479705127e-12              5.6617929489662213e-12       
# Table End
