# ODT 1.0
# Table Start
# Title: mmArchive Data Table, Tue Mar 29 2:28:43 AM Eastern Daylight Time 2011
# Columns: {Oxs_SpinXferEvolve:evolve:Total energy} {Oxs_SpinXferEvolve:evolve:Energy calc count} {Oxs_SpinXferEvolve:evolve:Max dm/dt} Oxs_SpinXferEvolve:evolve:dE/dt {Oxs_SpinXferEvolve:evolve:Delta E} {Oxs_SpinXferEvolve:evolve:average J} Oxs_UZeeman::Energy  Oxs_UZeeman::B       Oxs_UZeeman::Bx      Oxs_UZeeman::By      Oxs_UZeeman::Bz      Oxs_Demag::Energy    Oxs_TimeDriver::Iteration {Oxs_TimeDriver::Stage iteration} Oxs_TimeDriver::Stage Oxs_TimeDriver::mx   Oxs_TimeDriver::my   Oxs_TimeDriver::mz   {Oxs_TimeDriver::Last time step} {Oxs_TimeDriver::Simulation time}
# Units:                      J                                          {}                                      deg/ns                               J/s                                J                                  A/m^2                          J                 mT                   mT                   mT                   mT                     J                       {}                            {}                          {}                   {}                   {}                   {}                          s                                 s                
                      1.8296709503097065e-018                        1                                         100.79963378482547                -1.6546657688222854e-011               0                                    0                             0                    10                   0                    0                    10                   1.8296709503097065e-018    0                             0                           0                     1                    0                    0                          0                                0                         
                      1.8296693911791998e-018                        7                                         100.77817440328734                -1.6539613153826838e-011              -1.5591305066209315e-024                  0                            -1.5592964874208002e-024  10                   0                    0                    10                   1.8296709504756874e-018    1                             1                           0                     0.99999998625706521  0.00016577238328533659  2.3208133766263073e-006        9.4246374151313088e-014              9.4246374151313088e-014       
                      1.8296631612921515e-018                        13                                        100.6923825471882                 -1.6511464992933808e-011              -6.2298870480503863e-024                  0                            -7.7931635343422687e-024  10                   0                    0                    10                   1.829670954455686e-018    2                             2                           0                     0.99999965671910196  0.00082850898525918266  1.1599127120881516e-005        3.7698549660525235e-013              4.7123187075656545e-013       
                      1.8296670578739189e-018                        14                                        50.292565658165827                -4.1190774412436712e-012               0                                    0                            -3.8965817671711344e-024  5                    0                    0                    5                    1.829670954455686e-018    3                             0                           1                     0.99999965671910196  0.00082850898525918266  1.1599127120881516e-005        0                                4.7123187075656545e-013       
                      1.8296662801338856e-018                        20                                        50.271108569415489                -4.115563420637051e-012              -7.7774003329977859e-025                  0                            -4.676146666645643e-024  5                    0                    0                    5                    1.8296709562805524e-018    4                             1                           1                     0.99999950562296647  0.0009942635792270975  1.3919692403038191e-005        1.8889471785095773e-013              6.6012658860752313e-013       
                      1.8296631758030591e-018                        26                                        50.185371718359221                -4.1015372906232764e-012              -3.1043308263178912e-024                  0                            -7.7910817055861475e-024  5                    0                    0                    5                    1.8296709668847646e-018    5                             2                           1                     0.99999862761016411  0.0016565747543286729  2.3192057170116908e-005        7.5557887140383093e-013              1.4157054600113541e-012       
                      1.8296709668847646e-018                        27                                        0.21444516049919457               -7.4890179814947209e-017               0                                    0                             0                    0                    0                    0                    0                    1.8296709668847646e-018    6                             0                           2                     0.99999862761016411  0.0016565747543286729  2.3192057170116908e-005        0                                1.4157054600113541e-012       
                      1.8296709638780463e-018                        33                                        0.19402248810665734               -6.1305086999514657e-017              -3.0067184297877247e-027                  0                             0                    0                    0                    0                    0                    1.8296709638780463e-018    7                             1                           2                     0.99999887656189412  0.0014988110782157575  2.0983362952857617e-005        4.4300370210665963e-011              4.5716075670677318e-011       
                      1.8296709589454901e-018                        39                                        0.15478881972125347               -3.9018588196931116e-017              -4.9325561235491474e-027                  0                             0                    0                    0                    0                    0                    1.8296709589454901e-018    8                             2                           2                     0.9999992849700744   0.001195733709071929  1.6740275916934373e-005        1e-010                           1.4571607567067732e-010       
# Table End
