# ODT 1.0
# Table Start
# Title: mmArchive Data Table, Tue Mar 29 2:28:45 AM Eastern Daylight Time 2011
# Columns: {Oxs_SpinXferEvolve:evolve:Total energy} {Oxs_SpinXferEvolve:evolve:Energy calc count} {Oxs_SpinXferEvolve:evolve:Max dm/dt} Oxs_SpinXferEvolve:evolve:dE/dt {Oxs_SpinXferEvolve:evolve:Delta E} {Oxs_SpinXferEvolve:evolve:average J} Oxs_UniformExchange::Energy {Oxs_UniformExchange::Max Spin Ang} {Oxs_UniformExchange::Stage Max Spin Ang} {Oxs_UniformExchange::Run Max Spin Ang} Oxs_Demag::Energy    Oxs_FixedZeeman:Happ:Energy Oxs_FixedZeeman:WireField:Energy Oxs_TimeDriver::Iteration {Oxs_TimeDriver::Stage iteration} Oxs_TimeDriver::Stage Oxs_TimeDriver::mx   Oxs_TimeDriver::my   Oxs_TimeDriver::mz   {Oxs_TimeDriver::mx middle} {Oxs_TimeDriver::my middle} Oxs_TimeDriver::my_left Oxs_TimeDriver::my_right {Oxs_TimeDriver::Last time step} {Oxs_TimeDriver::Simulation time}
# Units:                      J                                          {}                                      deg/ns                               J/s                                J                                  A/m^2                              J                              deg                                    deg                                      deg                           J                         J                             J                            {}                            {}                          {}                   {}                   {}                   {}                       {}                          {}                        {}                       {}                           s                                 s                
                      8.2588423158820473e-019                        1                                         290.60862100021461                -1.8996513437646684e-012               0                                   -418754339157.34149               9.3735887580034465e-021             2.2266007022090686                     2.2266007022090686                       2.2266007022090686             8.1102017532309677e-019     0                              5.4904675071045633e-021          0                             0                           0                     0.99817680061430281  4.0684597351675325e-018 -4.1056624886638817e-032     0.99999992186215259        -2.4698865800787709e-017      -3.9196136472955496e-018     -5.9718854649244053e-018          0                                0                         
                      8.2588417048537565e-019                        7                                         291.47520485979453                -1.838598183496086e-012              -6.1102829188643769e-026                 -418754339157.34149               9.373610567259228e-021             2.2266011815497078                     2.2266011815497078                       2.2266011815497078             8.1102017107683599e-019     0                              5.4903888412804033e-021          1                             1                           0                     0.99817676897885221 -2.3330495509788883e-006 -3.2817761177831169e-008     0.99999992173834729        -8.9558909610705085e-006      -2.2190569175849914e-006      2.4470421843655999e-006          3.2690014381896073e-014              3.2690014381896073e-014       
                      8.2588394613032224e-019                        13                                        293.26876082862867                -1.5931637264164983e-012              -2.2435505338993255e-025                 -418754339157.34149               9.3740171033995407e-021             2.2266062991745934                     2.2266062991745934                       2.2266062991745934             8.1102018175544673e-019     0                              5.489747271475991e-021          2                             2                           0                     0.99817663302045756 -1.1673896203080726e-005 -1.6734654728051703e-007     0.99999992049218922        -4.481297104894174e-005      -1.043661306009602e-005      1.2911179346086888e-005          1.3076005752758429e-013              1.6345007190948036e-013       
                      8.2588394613032224e-019                        14                                        293.26876082862867                -1.5931637264164983e-012               0                                   -418754339157.34149               9.3740171033995407e-021             2.2266062991745934                     2.2266062991745934                       2.2266062991745934             8.1102018175544673e-019     0                              5.489747271475991e-021          3                             0                           1                     0.99817663302045756 -1.1673896203080726e-005 -1.6734654728051703e-007     0.99999992049218922        -4.481297104894174e-005      -1.043661306009602e-005      1.2911179346086888e-005          0                                1.6345007190948036e-013       
                      8.2588389549809634e-019                        20                                        293.28544600591584                -1.5329980459478755e-012              -5.0632225829546536e-026                 -418754339157.34149               9.374194482649946e-021             2.2266083666961345                     2.2266083666961345                       2.2266083666961345             8.1102019118231674e-019     0                              5.4895098331296375e-021          4                             1                           1                     0.99817659701578798 -1.3990040015488481e-005 -2.0151080822518728e-007     0.99999992001082627        -5.3704134192499661e-005      -1.2309789692390634e-005      1.5670290338585345e-005          3.2393494530947727e-014              1.9584356644042809e-013       
                      8.2588371210992239e-019                        26                                        291.58979082118736                -1.3002071634080968e-012              -1.8338817395439947e-025                 -418754339157.34149               9.3751851147212668e-021             2.2266198984550192                     2.2266198984550192                       2.2266198984550192             8.1102025514835519e-019     0                              5.4882718468459411e-021          5                             2                           1                     0.99817644382811621 -2.3262840644728858e-005 -3.4167363619056999e-007     0.99999991752496642        -8.9300874513675548e-005      -1.9160428955265147e-005      2.7365252334198597e-005          1.2957397812379091e-013              3.25417544564219e-013       
                      8.2588371210992239e-019                        27                                        291.58979082118736                -1.3002071634080968e-012               0                                   -418754339157.34149               9.3751851147212668e-021             2.2266198984550192                     2.2266198984550192                       2.2266198984550192             8.1102025514835519e-019     0                              5.4882718468459411e-021          6                             0                           2                     0.99817644382811621 -2.3262840644728858e-005 -3.4167363619056999e-007     0.99999991752496642        -8.9300874513675548e-005      -1.9160428955265147e-005      2.7365252334198597e-005          0                                3.25417544564219e-013       
                      8.2588367066062108e-019                        33                                        290.71196802197653                -1.2444814308267466e-012              -4.1449301334554819e-026                 -418754339157.34149               9.375499597397331e-021             2.226623638796529                      2.226623638796529                        2.226623638796529              8.1102027765947891e-019     0                              5.4878934037448507e-021          7                             1                           2                     0.99817640301611865 -2.5596427483657658e-005 -3.7782765082910157e-007     0.99999991678437872        -9.8259295918809987e-005      -2.0722193943886351e-005      3.0470661023427467e-005          3.2580015827185525e-014              3.5799756039140453e-013       
                      8.2588352228063867e-019                        39                                        285.35695052435824                -1.037215940171469e-012              -1.4837998255749548e-025                 -418754339157.34149               9.3769807326520436e-021             2.2266421228551971                     2.2266421228551971                       2.2266421228551971             8.1102039187012377e-019     0                              5.4861496778627853e-021          8                             2                           2                     0.9981762306497316  -3.4938752576325514e-005 -5.2627115971931852e-007     0.99999991350605111        -0.00013412461143180951      -2.6330156948792586e-005      4.354734820386267e-005          1.303200633087421e-013              4.8831762370014658e-013       
                      8.2588352228063867e-019                        40                                        285.35695052435824                -1.037215940171469e-012               0                                   -418754339157.34149               9.3769807326520436e-021             2.2266421228551971                     2.2266421228551971                       2.2266421228551971             8.1102039187012377e-019     0                              5.4861496778627853e-021          9                             0                           3                     0.9981762306497316  -3.4938752576325514e-005 -5.2627115971931852e-007     0.99999991350605111        -0.00013412461143180951      -2.6330156948792586e-005      4.354734820386267e-005          0                                4.8831762370014658e-013       
                      8.2588348856001391e-019                        46                                        283.51358623334943                -9.8889662701889607e-013              -3.3720624618090858e-026                 -418754339157.34149               9.3774085838541169e-021             2.2266477764343779                     2.2266477764343779                       2.2266477764343779             8.1102042685073176e-019     0                              5.4856531254280119e-021          10                            1                           3                     0.99817618429781974 -3.7327355193103584e-005 -5.6520076721487588e-007     0.99999991260670584        -0.00014329481546986121      -2.7600245629717331e-005      4.7054464756487039e-005          3.3291636956952534e-014              5.2160926065709916e-013       
                      8.2588336869790588e-019                        52                                        274.20905155782833                -8.1727411168350434e-013              -1.1986210819921515e-025                 -418754339157.34149               9.3792696197817519e-021             2.2266743606145529                     2.2266743606145529                       2.2266743606145529             8.1102058724515059e-019     0                              5.4835118329734896e-021          11                            2                           3                     0.99817598959104337 -4.6889671337224565e-005 -7.2516693893460587e-007     0.99999990879284961        -0.0001800077902013206      -3.2029668866849271e-005      6.1749673807591328e-005          1.3316654782781014e-013              6.547758084849093e-013       
                      8.2588336869790588e-019                        53                                        274.20905155782833                -8.1727411168350434e-013               0                                   -418754339157.34149               9.3792696197817519e-021             2.2266743606145529                     2.2266743606145529                       2.2266743606145529             8.1102058724515059e-019     0                              5.4835118329734896e-021          12                            0                           4                     0.99817598959104337 -4.6889671337224565e-005 -7.2516693893460587e-007     0.99999990879284961        -0.0001800077902013206      -3.2029668866849271e-005      6.1749673807591328e-005          0                                6.547758084849093e-013       
                      8.2588334106033913e-019                        59                                        271.28553893678185                -7.7861638424754563e-013              -2.7637566504843998e-026                 -418754339157.34149               9.3797834988979382e-021             2.2266823493761412                     2.2266823493761412                       2.2266823493761412             8.1102063366790261e-019     0                              5.482923893538604e-021          13                            1                           4                     0.99817593652256142 -4.9379463342151216e-005 -7.6792117884625807e-007     0.9999999077293773         -0.000189567515591511      -3.3013433841080767e-005      6.5745492843208452e-005          3.4645099955777835e-014              6.894209084406871e-013       
                      8.2588324258140035e-019                        65                                        257.5609579276296                 -6.4944364003071313e-013              -9.8478938838621323e-026                 -418754339157.34149               9.3819021136587784e-021             2.2267189123721129                     2.2267189123721129                       2.2267189123721129             8.1102083397104241e-019     0                              5.4805064966992088e-021          14                            2                           4                     0.99817571445315301 -5.9346672555691468e-005 -9.4375501741248488e-007     0.99999990291486374        -0.00022784029114739755      -3.6267041883601801e-005      8.2426303227780179e-005          1.3858039982311134e-013              8.2800130826379852e-013       
                      8.2588324258140035e-019                        66                                        257.5609579276296                 -6.4944364003071313e-013               0                                   -418754339157.34149               9.3819021136587784e-021             2.2267189123721129                     2.2267189123721129                       2.2267189123721129             8.1102083397104241e-019     0                              5.4805064966992088e-021          15                            0                           5                     0.99817571445315301 -5.9346672555691468e-005 -9.4375501741248488e-007     0.99999990291486374        -0.00022784029114739755      -3.6267041883601801e-005      8.2426303227780179e-005          0                                8.2800130826379852e-013       
                      8.2588321914479333e-019                        72                                        253.37349045423264                -6.2183078929721986e-013              -2.3436607114869366e-026                 -418754339157.34149               9.3824724562306291e-021             2.2267299139603751                     2.2267299139603751                       2.2267299139603751             8.1102089029415537e-019     0                              5.4798563944073046e-021          16                            1                           5                     0.99817565273701603 -6.2001646396378052e-005 -9.9187233816847254e-007     0.99999990139583261        -0.00023803597687841989      -3.6952263341046995e-005      8.7051029451712354e-005          3.6884472229169703e-014              8.6488578049296823e-013       
                      8.258831341028561e-019                        78                                        234.49610219325837                -5.3780933472930778e-013              -8.5041937211070948e-026                 -418754339157.34149               9.3847186731819332e-021             2.2267793836531546                     2.2267793836531546                       2.2267793836531546             8.1102112244335684e-019     0                              5.4772929863173878e-021          17                            2                           5                     0.99817539508623832 -7.2630010337497935e-005 -1.1899774933754675e-006     0.99999989349327223        -0.00027885600900975276      -3.8953646883620852e-005      0.00010630637379137836          1.4753788891667881e-013              1.012423669409647e-012       
                      8.258831341028561e-019                        79                                        234.49610219325837                -5.3780933472930778e-013               0                                   -418754339157.34149               9.3847186731819332e-021             2.2267793836531546                     2.2267793836531546                       2.2267793836531546             8.1102112244335684e-019     0                              5.4772929863173878e-021          18                            0                           6                     0.99817539508623832 -7.2630010337497935e-005 -1.1899774933754675e-006     0.99999989349327223        -0.00027885600900975276      -3.8953646883620852e-005      0.00010630637379137836          0                                1.012423669409647e-012       
                      8.2588311265429556e-019                        85                                        228.74810972299701                -5.2149977463349378e-013              -2.1448560415348175e-026                 -418754339157.34149               9.3853150320828198e-021             2.2267945079007667                     2.2267945079007667                       2.2267945079007667             8.1102118710126617e-019     0                              5.4766105209465736e-021          19                            1                           6                     0.99817532135162101 -7.5550745480087796e-005 -1.2459673384200584e-006     0.9999998905986266         -0.00029007508717895106      -3.9300339887663804e-005      0.00011180115107252516          4.051240046698363e-014              1.0529360698766306e-012       
                      8.2588303199208577e-019                        91                                        203.5988224285004                 -4.7978200816301021e-013              -8.0662209862332752e-026                 -418754339157.34149               9.3875554488496661e-021             2.2268615972433885                     2.2268615972433885                       2.2268615972433885             8.110214444139192e-019     0                              5.4740321293169554e-021          20                            2                           6                     0.99817501374315853 -8.7243068963088852e-005 -1.4768524027825631e-006     0.99999987415142755        -0.00033499500699498043      -3.9842056227444869e-005      0.00013464408169873345          1.6204960186793452e-013              1.214985671744565e-012       
# Table End
