# ODT 1.0
# Table Start
# Title: mmArchive Data Table, Wed Jun 11 23:40:01 EDT 2014
# Columns: {Oxs_SpinXferEvolve:evolve:Total energy} {Oxs_SpinXferEvolve:evolve:Energy calc count} {Oxs_SpinXferEvolve:evolve:Max dm/dt} Oxs_SpinXferEvolve:evolve:dE/dt {Oxs_SpinXferEvolve:evolve:Delta E} {Oxs_SpinXferEvolve:evolve:average J} Oxs_UniformExchange::Energy {Oxs_UniformExchange::Max Spin Ang} {Oxs_UniformExchange::Stage Max Spin Ang} {Oxs_UniformExchange::Run Max Spin Ang} Oxs_Demag::Energy    Oxs_FixedZeeman:Happ:Energy Oxs_FixedZeeman:WireField:Energy Oxs_TimeDriver::Iteration {Oxs_TimeDriver::Stage iteration} Oxs_TimeDriver::Stage Oxs_TimeDriver::mx   Oxs_TimeDriver::my   Oxs_TimeDriver::mz   {Oxs_TimeDriver::mx middle} {Oxs_TimeDriver::my middle} Oxs_TimeDriver::my_left Oxs_TimeDriver::my_right {Oxs_TimeDriver::Last time step} {Oxs_TimeDriver::Simulation time}
# Units:                      J                                          {}                                      deg/ns                               J/s                                J                                  A/m^2                              J                              deg                                    deg                                      deg                           J                         J                             J                            {}                            {}                          {}                   {}                   {}                   {}                       {}                          {}                        {}                       {}                           s                                 s                
                      8.2587109237752828e-19                        1                                         290.60862101328996                -1.8980315038011201e-12               0                                   -418754339157.34247               9.3735887580034465e-21             2.2266007022087364                     2.2266007022087364                       2.2266007022087364             8.110201753229685e-19     0                              5.4773282965563813e-21          0                             0                           0                     0.99817680061430225  3.0399452489545827e-18 -4.1056624886640678e-32     0.99999992186215259        -2.4679163251336614e-17      -1.6158359007971865e-18     -7.7119469751323863e-18          0                                0                         
                      8.2587103132767036e-19                        7                                         291.47521948899373                -1.8369771781532304e-12              -6.1049857911097526e-26                 -418754339157.34247               9.3736105671308181e-21             2.2266011849448364                     2.2266011849448364                       2.2266011849448364             8.1102017107479817e-19     0                              5.4772496857413779e-21          1                             1                           0                     0.99817676897965291 -2.3330410317424886e-06 -3.3279341001538823e-08     0.99999992173976249        -8.9558908831534453e-06      -2.2191983651643284e-06      2.4468836983206598e-06          3.2690014380425245e-14              3.2690014380425245e-14       
                      8.2587080718495284e-19                        13                                        293.2691943888417                 -1.5915366330723594e-12              -2.2414271752835874e-25                 -418754339157.34247               9.3740171285699856e-21             2.2266063829750973                     2.2266063829750973                       2.2266063829750973             8.1102018167948767e-19     0                              5.4766083768952054e-21          2                             2                           0                     0.99817663302955151 -1.1673812078132096e-05 -1.6965411834811534e-07     0.99999992051884234        -4.4812968166033513e-05      -1.0438098483903718e-05      1.2909525672360497e-05          1.3076005752170098e-13              1.6345007190212623e-13       
                      8.2587021067017771e-19                        19                                        271.95816401759396                -7.7972147062140604e-13              -5.965147751913865e-25                 -418754339157.34247               9.3797424386776441e-21             2.2266829169721238                     2.2266829169721238                       2.2266829169721238             8.1102062822265415e-19     0                              5.4698400088459119e-21          3                             3                           0                     0.9981759411700567  -4.916776600754249e-05 -7.7396470402297799e-07     0.99999990819085871        -0.00018875861801595896      -3.2952498268538746e-05      6.5383033746546241e-05          5.2304023008680391e-13              6.8649030198893014e-13       
                      8.2586977920961478e-19                        31                                        169.42351440358712                -4.4761594507836325e-13              -4.3146056285814236e-25                 -418754339157.34247               9.3922640513467374e-21             2.227080338554404                      2.227080338554404                        2.227080338554404              8.1102207942412448e-19     0                              5.4554357341436176e-21          4                             4                           0                     0.99817412871683286 -0.00011744671239640753 -2.1464073821072981e-06     0.9999997697819335         -0.00045112028236204689      -3.5487272242429691e-05      0.00019940615255038539          9.4630023146097372e-13              1.6327905334499039e-12       
                      8.2586977920961478e-19                        32                                        169.42351440358712                -4.4761594507836325e-13               0                                   -418754339157.34247               9.3922640513467374e-21             2.227080338554404                      2.227080338554404                        2.227080338554404              8.1102207942412448e-19     0                              5.4554357341436176e-21          5                             0                           1                     0.99817412871683286 -0.00011744671239640753 -2.1464073821072981e-06     0.9999997697819335         -0.00045112028236204689      -3.5487272242429691e-05      0.00019940615255038539          0                                1.6327905334499039e-12       
                      8.2586975597092007e-19                        38                                        167.96853919475527                -4.4827703464522749e-13              -2.3238694714810845e-26                 -418754339157.34247               9.3926730005324932e-21             2.2271109440375469                     2.2271109440375469                       2.2271109440375469             8.1102215441513426e-19     0                              5.454928555253307e-21          6                             1                           1                     0.99817400973312154 -0.00012120230387385088 -2.232627317165051e-06     0.99999975011101894        -0.00046556676679163924      -3.4388766097543012e-05      0.00020801584165015873          5.1867062437786068e-14              1.68465759588769e-12       
                      8.2586966391416417e-19                        44                                        157.47460379423981                -4.3410464370516891e-13              -9.2056755965555459e-26                 -418754339157.34247               9.3940457228134158e-21             2.2272392425416627                     2.2272392425416627                       2.2272392425416627             8.1102245458654625e-19     0                              5.4531636048044507e-21          7                             2                           1                     0.9981735136697012  -0.000136235909540697 -2.5889022786430758e-06     0.99999965237017585        -0.0005234186759839665      -2.8860410152465815e-05      0.00024361140892892818          2.0746824975114427e-13              1.8921258456388344e-12       
                      8.258694797556634e-19                        50                                        178.05245496173242                -5.3060350715169877e-14              -1.8415850073100523e-25                 -418754339157.34247               9.3991105003764407e-21             2.2277779503778841                     2.2277779503778841                       2.2277779503778841             8.110238234340161e-19     0                              5.4465458212708797e-21          8                             3                           1                     0.99817120112271041 -0.00019651983685441918 -4.1976191912436991e-06     0.99999910864341035        -0.00075594386679934717       1.012445749478174e-05      0.00040316413120362009          8.2987299900457708e-13              2.7219988446434115e-12       
                      8.2586965903413714e-19                        56                                        145.44677399877651                 2.5573413470758853e-13               1.7927847373738569e-25                 -418754339157.34247               9.4079217635808738e-21             2.2283063927923079                     2.2283063927923079                       2.2283063927923079             8.1102561755064652e-19     0                              5.4361197199097799e-21          9                             4                           1                     0.99816816606588865 -0.00026060703034401397 -6.2386691320227356e-06     0.99999897540662086        -0.0010048809201204769       8.0581708204767596e-05      0.00060179576889279559          8.8002876296019366e-13              3.6020276076036049e-12       
                      8.2586965903413714e-19                        57                                        145.44677399877651                 2.5573413470758853e-13               0                                   -418754339157.34247               9.4079217635808738e-21             2.2283063927923079                     2.2283063927923079                       2.2283063927923079             8.1102561755064652e-19     0                              5.4361197199097799e-21          10                            0                           2                     0.99816816606588865 -0.00026060703034401397 -6.2386691320227356e-06     0.99999897540662086        -0.0010048809201204769       8.0581708204767596e-05      0.00060179576889279559          0                                3.6020276076036049e-12       
                      8.2586967456587987e-19                        63                                        144.53100507091804                 2.5821357547599823e-13               1.5531742765265416e-26                 -418754339157.34247               9.4085655648965741e-21             2.2283434302671994                     2.2283434302671994                       2.2283434302671994             8.110257339589269e-19     0                              5.4353750420564749e-21          11                            1                           2                     0.99816793587592956 -0.00026500885016887243 -6.3920814878592171e-06     0.99999898554560873        -0.0010220319605153678       8.6602710416639926e-05      0.00061662041075438484          6.0417290520819114e-14              3.662444898124424e-12       
                      8.2586973763389263e-19                        69                                        137.57526648686564                 2.6308702093873544e-13               6.3068012685523654e-26                 -418754339157.34247               9.41111913413829e-21             2.2284973401065975                     2.2284973401065975                       2.2284973401065975             8.1102616671433702e-19     0                              5.4324517854172635e-21          12                            2                           2                     0.99816698734517972 -0.00028261483544916893 -7.0232820778019922e-06     0.99999901386171275        -0.0010905561388013397       0.00011231402759425178      0.00067754369849258957          2.4166916208327645e-13              3.9041140602077003e-12       
                      8.2587015343710464e-19                        75                                        142.59873130599578                 5.6566223191941884e-13               4.1580321203265878e-25                 -418754339157.34247               9.423218563508371e-21             2.2292243173270383                     2.2292243173270383                       2.2292243173270383             8.1102713058310471e-19     0                              5.4198042904915884e-21          13                            3                           2                     0.99816274806676564 -0.00035294938555771593 -9.8413513807688227e-06     0.99999844286387407        -0.0013555036729161936       0.00024216041380627042      0.00094805918492170231          9.6667664833310582e-13              4.8707907085408063e-12       
                      8.2587104352843145e-19                        81                                        128.2068386395722                  1.2942142429120073e-12               8.90091326857843e-25                 -418754339157.34247               9.438808470648811e-21             2.22995837977889                       2.22995837977889                         2.22995837977889               8.1102646307014042e-19     0                              5.4057719876422139e-21          14                            4                           2                     0.9981581606326092  -0.00041824069331699708 -1.2943136723039138e-05     0.99999751909961765        -0.00156986009687738       0.00040116150085493904      0.0012376428874889332          9.016018193523487e-13              5.7723925278931551e-12       
                      8.2587104352843145e-19                        82                                        128.2068386395722                  1.2942142429120073e-12               0                                   -418754339157.34247               9.438808470648811e-21             2.22995837977889                       2.22995837977889                         2.22995837977889               8.1102646307014042e-19     0                              5.4057719876422139e-21          15                            0                           3                     0.9981581606326092  -0.00041824069331699708 -1.2943136723039138e-05     0.99999751909961765        -0.00156986009687738       0.00040116150085493904      0.0012376428874889332          0                                5.7723925278931551e-12       
                      8.2587113395699174e-19                        88                                        126.22850287141185                 1.3440537791478286e-12               9.0428560216950794e-26                 -418754339157.34247               9.4400534883102114e-21             2.2300114757736225                     2.2300114757736225                       2.2300114757736225             8.1102633050684719e-19     0                              5.4047499618343142e-21          16                            1                           3                     0.99815778768393504 -0.00042318503299221299 -1.3200131804157982e-05     0.99999748428030211        -0.0015849575952740938       0.00041461070920811139      0.0012609807751925374          6.8541585560067466e-14              5.8409341134532224e-12       
                      8.2587152751645553e-19                        94                                        120.97244191444705                 1.519336352474309e-12               3.9355946380672376e-25                 -418754339157.34247               9.445006256169557e-21             2.2302194883542819                     2.2302194883542819                       2.2302194883542819             8.1102566049735529e-19     0                              5.4008607629306323e-21          17                            2                           3                     0.99815626270241786 -0.00044292838787812891 -1.4260665282149102e-05     0.99999739769938323        -0.0016453748868190813       0.00047018571901086254      0.0013560424947671205          2.7416634224026986e-13              6.1151004556934926e-12       
                      8.2587309713511112e-19                        106                                       112.82724449885005                 1.8484993505230194e-12               1.5696186556125887e-24                 -418754339157.34247               9.4621034495396697e-21             2.230870354305698                      2.230870354305698                        2.230870354305698              8.1102208623686727e-19     0                              5.3889074487041307e-21          18                            3                           3                     0.99815097703803768 -0.00050631997852023432 -1.8075586694347098e-05     0.99999709277094762        -0.0018767761027652253       0.00066850530475466086      0.0016811452617951296          8.8650187759742546e-13              7.0016023332909178e-12       
                      8.258749085874809e-19                        112                                       106.18033507351662                 2.2623842133898144e-12               1.8114523697746953e-24                 -418754339157.34247               9.4812161654148692e-21             2.2315024993056283                     2.2315024993056283                       2.2315024993056283             8.1101828742639256e-19     0                              5.3754049956734392e-21          19                            4                           3                     0.99814527707992207 -0.00056782739157697822 -2.2470658356183172e-05     0.99999616006808101        -0.0022309549690315601       0.0008915988183822687      0.002027253601536225          8.7219353638317144e-13              7.8737958696740901e-12       
                      8.258749085874809e-19                        113                                       106.18033507351662                 2.2623842133898144e-12               0                                   -418754339157.34247               9.4812161654148692e-21             2.2315024993056283                     2.2315024993056283                       2.2315024993056283             8.1101828742639256e-19     0                              5.3754049956734392e-21          20                            0                           4                     0.99814527707992207 -0.00056782739157697822 -2.2470658356183172e-05     0.99999616006808101        -0.0022309549690315601       0.0008915988183822687      0.002027253601536225          0                                7.8737958696740901e-12       
                      8.2587508420912838e-19                        119                                       106.29759524529811                 2.3267667706167109e-12               1.7562164751343802e-25                 -418754339157.34247               9.4828415316553269e-21             2.2315571549335433                     2.2315571549335433                       2.2315571549335433             8.1101805222740794e-19     0                              5.3741904500651166e-21          21                            1                           4                     0.9981447546668768  -0.00057317661464136277 -2.2888979136635189e-05     0.9999960665274561         -0.0022686557631882826       0.00091258120559544365      0.0020589344348781692          7.6553134762402779e-14              7.9503490044364929e-12       
                      8.2587584236035244e-19                        125                                       110.16472183619877                 2.6363565865082217e-12               7.5815122402521147e-25                 -418754339157.34247               9.4890465658370359e-21             2.2317761698019254                     2.2317761698019254                       2.2317761698019254             8.1101734315562173e-19     0                              5.3694526388936244e-21          22                            2                           4                     0.99814263077409582 -0.00059448456539372776 -2.4616083897023107e-05     0.99999569513600484        -0.0024269522447624807       0.00099885864636530637      0.0021878277771527621          3.0621253904961111e-13              8.2565615434861027e-12       
                      8.2587855038745809e-19                        137                                       107.60653474065788                 3.5744783763262842e-12               2.7080271056669292e-24                 -418754339157.34247               9.5050651488138839e-21             2.2324414720949948                     2.2324414720949948                       2.2324414720949948             8.1101666894355164e-19     0                              5.3568162950925397e-21          23                            3                           4                     0.99813645281229924 -0.00065280535573206708 -2.9865925900765499e-05     0.9999943911997583         -0.0028879796157791596       0.0012579944587763684      0.0025636051702405023          8.4985370387199627e-13              9.1064152473580998e-12       
                      8.2588179724702118e-19                        143                                       100.58049666675116                 3.7414893843642178e-12               3.2468595630570345e-24                 -418754339157.34247               9.524226614724979e-21             2.2332046772952565                     2.2332046772952565                       2.2332046772952565             8.110141095503143e-19     0                              5.3434610819819038e-21          24                            4                           4                     0.99812981813968671 -0.00071013505892101518 -3.5848246639207511e-05     0.99999262233526842        -0.00330558166814704       0.0015462549041553191      0.0029665250219973495          8.5558812319981489e-13              9.962003370557915e-12       
                      8.2588179724702118e-19                        144                                       100.58049666675116                 3.7414893843642178e-12               0                                   -418754339157.34247               9.524226614724979e-21             2.2332046772952565                     2.2332046772952565                       2.2332046772952565             8.110141095503143e-19     0                              5.3434610819819038e-21          25                            0                           5                     0.99812981813968671 -0.00071013505892101518 -3.5848246639207511e-05     0.99999262233526842        -0.00330558166814704       0.0015462549041553191      0.0029665250219973495          0                                9.962003370557915e-12       
                      8.258820760875976e-19                        150                                       102.62980255443046                 3.7182902100297083e-12               2.7884057640177676e-25                 -418754339157.34247               9.5261565587889732e-21             2.2332660946217913                     2.2332660946217913                       2.2332660946217913             8.1101362818489355e-19     0                              5.3422913439150495e-21          26                            1                           5                     0.9981292193447483  -0.0007150705390910081 -3.6405318611516057e-05     0.99999248410870856        -0.0033379930252667727       0.0015726209322809736      0.0030027620104629898          7.4754101805757811e-14              1.0036757472363672e-11       
                      8.2588317283917761e-19                        156                                       106.06598640206708                 3.6163130524316276e-12               1.0967515800858813e-24                 -418754339157.34247               9.5342478181840336e-21             2.2334866033222731                     2.2334866033222731                       2.2334866033222731             8.1101121712142971e-19     0                              5.3377078995638888e-21          27                            2                           5                     0.9981267949828273  -0.0007346858401173276 -3.8690234090598018e-05     0.99999200705766789        -0.003460189988303222       0.0016798523485598836      0.0031492240287945387          2.9901640722303124e-13              1.0335773879586704e-11       
                      8.2588613930417521e-19                        168                                       100.96625422441957                 3.5065918354104531e-12               2.9664649975921101e-24                 -418754339157.34247               9.5593085354494471e-21             2.2340055193931123                     2.2340055193931123                       2.2340055193931123             8.1100145395336158e-19     0                              5.32537681536418e-21          28                            3                           5                     0.99811987177579842 -0.00078775460035310327 -4.548053325767471e-05     0.99999114252716159        -0.0037286733100531156       0.0019902610371166705      0.0035657702378228766          8.2597262381282049e-13              1.1161746503399523e-11       
                      8.2588907516348485e-19                        174                                       97.006200380188403                 3.3589027260420199e-12               2.935859309565217e-24                 -418754339157.34247               9.5862318951395817e-21             2.2349314832946972                     2.2349314832946972                       2.2349314832946972             8.1099093928312171e-19     0                              5.3119039852235073e-21          29                            4                           5                     0.99811258624529742 -0.00083956705342395693 -5.3071999837501753e-05     0.99999030994689198        -0.0038873095906275263       0.0023251733036351065      0.0040043074104830203          8.3441896179777314e-13              1.1996165465197297e-11       
                      8.2588907516348485e-19                        175                                       97.006200380188403                 3.3589027260420199e-12               0                                   -418754339157.34247               9.5862318951395817e-21             2.2349314832946972                     2.2349314832946972                       2.2349314832946972             8.1099093928312171e-19     0                              5.3119039852235073e-21          30                            0                           6                     0.99811258624529742 -0.00083956705342395693 -5.3071999837501753e-05     0.99999030994689198        -0.0038873095906275263       0.0023251733036351065      0.0040043074104830203          0                                1.1996165465197297e-11       
                      8.2588931476136049e-19                        181                                       97.600247488809373                 3.3243225695077554e-12               2.3959787567874235e-25                 -418754339157.34247               9.5884527230173867e-21             2.2350347686375489                     2.2350347686375489                       2.2350347686375489             8.109901587058331e-19     0                              5.3107033325099775e-21          31                            1                           6                     0.99811194859380592 -0.00084392871691318591 -5.3759480870972536e-05     0.99999023728958425        -0.0038959315450918406       0.0023549862945896065      0.0040428437284159785          7.1695358736655557e-14              1.2067860823933954e-11       
                      8.2589024558362117e-19                        187                                       98.055620766520747                 3.1607740953000054e-12               9.3082226064917706e-25                 -418754339157.34247               9.5970140118885078e-21             2.2354461981225566                     2.2354461981225566                       2.2354461981225566             8.1098731477446172e-19     0                              5.3059167972709239e-21          32                            2                           6                     0.99810938150892892 -0.00086122530728637589 -5.6566256697625524e-05     0.99998997062834949        -0.0039236142932101009       0.0024759056646769298      0.0041983562792496818          2.8678143494662223e-13              1.2354642258880575e-11       
                      8.2589335015948387e-19                        193                                       101.57682871385477                 2.5402665424440881e-12               3.1045758627065803e-24                 -418754339157.34247               9.6243426346768529e-21             2.2364224406119826                     2.2364224406119826                       2.2364224406119826             8.1098087454677134e-19     0                              5.288132978035621e-21          33                            3                           6                     0.99809963458495554 -0.00092325360897290061 -6.7805692787098595e-05     0.99998926683609168        -0.0039502604503186449       0.0029478321782497869      0.0047943393961955884          1.0655403050381979e-12              1.3420182563918774e-11       