# ODT 1.0
# Table Start
# Title: mmArchive Data Table, Fri Sep 30 17:48:39 EDT 2011
# Columns: {Oxs_SpinXferEvolve:evolve:Total energy} {Oxs_SpinXferEvolve:evolve:Energy calc count} {Oxs_SpinXferEvolve:evolve:Max dm/dt} Oxs_SpinXferEvolve:evolve:dE/dt {Oxs_SpinXferEvolve:evolve:Delta E} {Oxs_SpinXferEvolve:evolve:average J} Oxs_UniformExchange::Energy {Oxs_UniformExchange::Max Spin Ang} {Oxs_UniformExchange::Stage Max Spin Ang} {Oxs_UniformExchange::Run Max Spin Ang} Oxs_Demag::Energy    Oxs_TimeDriver::Iteration {Oxs_TimeDriver::Stage iteration} Oxs_TimeDriver::Stage Oxs_TimeDriver::mx   Oxs_TimeDriver::my   Oxs_TimeDriver::mz   {Oxs_TimeDriver::Last time step} {Oxs_TimeDriver::Simulation time}
# Units:                      J                                          {}                                      deg/ns                               J/s                                J                                  A/m^2                              J                              deg                                    deg                                      deg                           J                       {}                            {}                          {}                   {}                   {}                   {}                          s                                 s                
                      1.4895510558862499e-18                        1                                         0.00012598139212829771               -1.9692764815983531e-24               0                                    0                                1.6328055610670579e-19             5.2468329953981439                     5.2468329953981439                       5.2468329953981439             1.3262704997795442e-18    0                             0                           0                    -0.68882979792736565  0.68882979792738908  0                          0                                0                         
                      1.4895510618627522e-18                        19                                        52.52589970533073                  1.2849087710764819e-13               5.9765020653281045e-27                  139530857103.94818               1.6326740842944001e-19             5.2466183441836431                     5.2468329953981439                       5.2468329953981439             1.3262836534333122e-18    1                             1                           0                    -0.68878349430155572  0.68887902163254444 -9.9575556900162539e-07        1.8604114280526423e-13              1.8604114280526423e-13       
                      1.4895512546043603e-18                        25                                        126.07206560834801                 1.7786326473365028e-12               1.9274160829568029e-25                  335093367532.31561               1.6320476832079616e-19             5.2455957394150401                     5.2468329953981439                       5.2468329953981439             1.3263464862835642e-18    2                             2                           0                    -0.68856277311100855  0.68911356653090716 -5.945467824477571e-06        2.6075001390448991e-13              4.4679115670975411e-13       
# Table End
