# ODT 1.0
# Table Start
# Title: mmArchive Data Table, Wed Jun 11 15:42:44 EDT 2014
# Columns: {Oxs_SpinXferEvolve:evolve:Total energy} {Oxs_SpinXferEvolve:evolve:Energy calc count} {Oxs_SpinXferEvolve:evolve:Max dm/dt} Oxs_SpinXferEvolve:evolve:dE/dt {Oxs_SpinXferEvolve:evolve:Delta E} {Oxs_SpinXferEvolve:evolve:average J} Oxs_UZeeman::Energy  Oxs_UZeeman::B       Oxs_UZeeman::Bx      Oxs_UZeeman::By      Oxs_UZeeman::Bz      Oxs_Demag::Energy    Oxs_TimeDriver::Iteration {Oxs_TimeDriver::Stage iteration} Oxs_TimeDriver::Stage Oxs_TimeDriver::mx   Oxs_TimeDriver::my   Oxs_TimeDriver::mz   {Oxs_TimeDriver::Last time step} {Oxs_TimeDriver::Simulation time}
# Units:                      J                                          {}                                      deg/ns                               J/s                                J                                  A/m^2                          J                 mT                   mT                   mT                   mT                     J                       {}                            {}                          {}                   {}                   {}                   {}                          s                                 s                
                      1.8296709503097065e-18                        1                                         100.79963378482547                -1.6546657688222854e-11               0                                    0                             0                    10                   0                    0                    10                   1.8296709503097065e-18    0                             0                           0                     1                    0                    0                          0                                0                         
                      1.8296693911791995e-18                        7                                         100.77817440328734                -1.6539613153826844e-11              -1.5591305069675986e-24                  0                            -1.5592964874208004e-24  10                   0                    0                    10                   1.829670950475687e-18    1                             1                           0                     0.99999998625706532  0.00016577238328533656  2.3208133766263077e-06        9.4246374151313075e-14              9.4246374151313075e-14       
                      1.8296631612921515e-18                        13                                        100.69238254718817                -1.6511464992933802e-11              -6.2298870481188038e-24                  0                            -7.7931635343422687e-24  10                   0                    0                    10                   1.829670954455686e-18    2                             2                           0                     0.99999965671910185  0.00082850898525918277  1.1599127120881515e-05        3.769854966052523e-13              4.7123187075656535e-13       
                      1.8296383475878522e-18                        19                                        100.3499447565798                 -1.6399350550012008e-11              -2.4813704299404546e-23                  0                            -3.26756083230475e-23  10                   0                    0                    10                   1.8296710231961752e-18    3                             3                           0                     0.99999396511484373  0.0034738118370062228  4.8633463550582319e-05        1.5079419864210092e-12              1.9791738571775748e-12       
                      1.829540766244454e-18                        25                                        98.991798475177035                -1.5958453518712387e-11              -9.7581343398185211e-23                  0                            -1.3136204920680171e-22  10                   0                    0                    10                   1.8296721282936606e-18    4                             4                           0                     0.99990246626441193  0.013964946544599972  0.00019551560812175136        6.0317679456840368e-12              8.0109418028616112e-12       
                      1.8296064472690571e-18                        26                                        48.591982546064905                -3.8452237056442117e-12               0                                    0                            -6.5681024603400854e-23  5                    0                    0                    5                    1.8296721282936606e-18    5                             0                           1                     0.99990246626441193  0.013964946544599972  0.00019551560812175136        0                                8.0109418028616112e-12       
                      1.8296056958385957e-18                        32                                        48.570525597676017                -3.8418285550099433e-12              -7.5143046137801648e-25                  0                            -6.6460583666909452e-23  5                    0                    0                    5                    1.8296721564222626e-18    6                             1                           1                     0.9999001373345433   0.01413068360755595  0.00019783615603173046        1.9550550321740951e-13              8.2064473060790207e-12       
                      1.8296026967456705e-18                        38                                        48.484792508253342                -3.8282779032251375e-12              -2.9990929255013786e-24                  0                            -6.9575379108079545e-23  5                    0                    0                    5                    1.8296722721247786e-18    7                             2                           1                     0.99989055767221446  0.01479289640944885  0.00020710810525195771        7.8202201286963804e-13              8.9884693189486588e-12       
                      1.8295908057836111e-18                        44                                        48.143370742602777                -3.7745515575239953e-12              -1.1890962059456639e-23                  0                            -8.1979677709432706e-23  5                    0                    0                    5                    1.8296727854613205e-18    8                             3                           1                     0.99984805602003124  0.017430012079438693  0.0002440325289955206        3.1280880514785522e-12              1.2116557370427211e-11       
                      1.8295448874664902e-18                        50                                        46.801556797203638                -3.5670810150749159e-12              -4.591831712069588e-23                  0                            -1.3072951013412422e-22  5                    0                    0                    5                    1.8296756169766245e-18    9                             4                           1                     0.99961363178119589  0.027792727840232706  0.00038914830923646274        1.2512352205914209e-11              2.462890957634142e-11       
                      1.8296756169766245e-18                        51                                        3.5982562790253696                -2.1085143338706065e-14               0                                    0                             0                    0                    0                    0                    0                    1.8296756169766245e-18    10                            0                           2                     0.99961363178119589  0.027792727840232706  0.00038914830923646274        0                                2.462890957634142e-11       
                      1.829675561639025e-18                        57                                        3.5768584961925205                -2.0835114558582138e-14              -5.5337599206978223e-26                  0                             0                    0                    0                    0                    0                    1.829675561639025e-18    11                            1                           2                     0.99961821306597554  0.027627494749267841  0.0003868341571542104        2.6401676988313872e-12              2.7269077275172808e-11       
                      1.8296753467732393e-18                        63                                        3.4925322834938224                -1.9864298484322228e-14              -2.1486578583182478e-25                  0                             0                    0                    0                    0                    0                    1.8296753467732393e-18    12                            2                           2                     0.99963600142392151  0.026976322749112731  0.00037771434876366684        1.0560670795325549e-11              3.7829748070498358e-11       
                      1.8296745828699052e-18                        69                                        3.1746445548327511                -1.6412796625931222e-14              -7.6390333423201332e-25                  0                             0                    0                    0                    0                    0                    1.8296745828699052e-18    13                            3                           2                     0.99969924448185021  0.024521474332789225  0.00034333506132197214        4.2242683181302195e-11              8.0072431251800553e-11       
                      1.8296732623099575e-18                        75                                        2.5326935525160037                -1.0446183812307464e-14              -1.3205599476436014e-24                  0                             0                    0                    0                    0                    0                    1.8296732623099575e-18    14                            4                           2                     0.99980857591962347  0.019563652308497582  0.0002739086100859432        1e-10                            1.8007243125180054e-10       
# Table End
