# ODT 1.0
# Table Start
# Title: mmArchive Data Table, Wed Jun 11 23:40:03 EDT 2014
# Columns: {Oxs_EulerEvolve::Total energy} {Oxs_EulerEvolve::Energy calc count} {Oxs_EulerEvolve::Max dm/dt} Oxs_EulerEvolve::dE/dt {Oxs_EulerEvolve::Delta E} Oxs_UniformExchange::Energy {Oxs_UniformExchange::Max Spin Ang} {Oxs_UniformExchange::Stage Max Spin Ang} {Oxs_UniformExchange::Run Max Spin Ang} Oxs_RandomSiteExchange::Energy {Oxs_RandomSiteExchange::Max Spin Ang} {Oxs_RandomSiteExchange::Stage Max Spin Ang} {Oxs_RandomSiteExchange::Run Max Spin Ang} Oxs_CoarseDemag::Energy Oxs_UZeeman::Energy  Oxs_UZeeman::B       Oxs_UZeeman::Bx      Oxs_UZeeman::By      Oxs_UZeeman::Bz      Oxs_TimeDriver::Iteration {Oxs_TimeDriver::Stage iteration} Oxs_TimeDriver::Stage Oxs_TimeDriver::mx   Oxs_TimeDriver::my   Oxs_TimeDriver::mz   {Oxs_TimeDriver::Last time step} {Oxs_TimeDriver::Simulation time}
# Units:                  J                                 {}                             deg/ns                     J/s                       J                           J                              deg                                    deg                                      deg                                 J                                 deg                                       deg                                         deg                                J                     J                 mT                   mT                   mT                   mT                        {}                            {}                          {}                   {}                   {}                   {}                          s                                 s                
                 4.6237592500115378e-16                1                                567.69657423535023       -1.6041054171018794e-07      0                          0                               0                                      0                                        0                                   0                                  0                                         0                                           0                                2.9093079113711601e-16    1.7144513386403773e-16  5.0007616402258028  -5                   -0.087275325000000001  0                      0                             0                           0                     0.99503719020998915  0.099503719020998915  0                          0                                0                         
                 4.6237310453490111e-16                2                                567.67022796152969       -1.6036584257132804e-07     -2.8204662526500127e-21        1.661311967482221e-25             0.0083028930955719761                    0.0083028930955719761                      0.0083028930955719761                 3.4396948204105488e-28                0.003667271413871279                       0.003667271413871279                         0.003667271413871279              2.909279474053009e-16    1.71445156963125e-16  5.0007616402258028  -5                   -0.087275325000000001  0                      1                             1                           0                     0.99503735295974172  0.099502088964996085  3.2763211011966045e-06        1.7615043764301975e-14              1.7615043764301975e-14       
                 4.6236958153771861e-16                3                                567.6382514714528        -1.6031133343851682e-07     -3.522997182516835e-21        8.4063251745989313e-25             0.018676724070257843                    0.018676724070257843                      0.018676724070257843                 1.7400276174323601e-27                0.0082481603375773541                       0.0082481603375773541                         0.0082481603375773541              2.9092439484234718e-16    1.7144518585299886e-16  5.0007616402258028  -5                   -0.087275325000000001  0                      2                             2                           0                     0.99503755666184945  0.099500041552123691  7.3649402683007953e-06        2.201880470537747e-14              3.9633848469679445e-14       
                 4.6236518178326025e-16                4                                567.59977185958724       -1.6024532190221597e-07     -4.3997544582882374e-21        2.4121192588949719e-24             0.031636539809008678                    0.031636539809008678                      0.031636539809008678                 4.9911567948472539e-27                0.013969266974178322                       0.013969266974178322                         0.013969266974178322              2.909199573761064e-16    1.7144522199004346e-16  5.0007616402258028  -5                   -0.087275325000000001  0                      3                             3                           0                     0.99503781170104644  0.099497466935496645  1.2465121419153186e-05        2.7523505881721836e-14              6.7157354351401281e-14       
                 4.6235968823424544e-16                5                                567.55399557985197       -1.6016611279370938e-07     -5.4935490148157564e-21        5.5124543377436131e-24             0.047824641139677999                    0.047824641139677999                      0.047824641139677999                 1.1401565626091709e-26                0.021112822942261814                       0.021112822942261814                         0.021112822942261814              2.9091441551107372e-16    1.7144526719931585e-16  5.0007616402258028  -5                   -0.087275325000000001  0                      4                             4                           0                     0.99503813113845641  0.099494224735993453  1.8823805186078754e-05        3.4404382352152295e-14              1.0156173670355358e-13       
# Table End
