# ODT 1.0
# Table Start
# Title: mmArchive Data Table, Tue Jun 28 19:59:54 EDT 2011
# Columns: {Oxs_EulerEvolve::Total energy} {Oxs_EulerEvolve::Energy calc count} {Oxs_EulerEvolve::Max dm/dt} Oxs_EulerEvolve::dE/dt {Oxs_EulerEvolve::Delta E} Oxs_UniformExchange::Energy {Oxs_UniformExchange::Max Spin Ang} {Oxs_UniformExchange::Stage Max Spin Ang} {Oxs_UniformExchange::Run Max Spin Ang} Oxs_RandomSiteExchange::Energy {Oxs_RandomSiteExchange::Max Spin Ang} {Oxs_RandomSiteExchange::Stage Max Spin Ang} {Oxs_RandomSiteExchange::Run Max Spin Ang} Oxs_CoarseDemag::Energy Oxs_UZeeman::Energy  Oxs_UZeeman::B       Oxs_UZeeman::Bx      Oxs_UZeeman::By      Oxs_UZeeman::Bz      Oxs_TimeDriver::Iteration {Oxs_TimeDriver::Stage iteration} Oxs_TimeDriver::Stage Oxs_TimeDriver::mx   Oxs_TimeDriver::my   Oxs_TimeDriver::mz   {Oxs_TimeDriver::Last time step} {Oxs_TimeDriver::Simulation time}
# Units:                  J                                 {}                             deg/ns                     J/s                       J                           J                              deg                                    deg                                      deg                                 J                                 deg                                       deg                                         deg                                J                     J                 mT                   mT                   mT                   mT                        {}                            {}                          {}                   {}                   {}                   {}                          s                                 s                
                 4.6237592500115329e-16                1                                567.69657423536921       -1.6041054171019069e-07      0                          0                               0                                      0                                        0                                   0                                  0                                         0                                           0                                2.9093079113711556e-16    1.7144513386403773e-16  5.0007616402258019  -5                   -0.087275325000000001  0                      0                             0                           0                     0.9950371902099876   0.099503719020998763  0                          0                                0                         
                 4.6237310453490091e-16                2                                567.67022796154856       -1.6036584257133042e-07     -2.8204662526595483e-21        1.6613119674821441e-25             0.0083028930569788023                    0.0083028930569788023                      0.0083028930569788023                 3.4396956007930439e-28                0.0036672714776782487                       0.0036672714776782487                         0.0036672714776782487              2.909279474053007e-16    1.7144515696312502e-16  5.0007616402258019  -5                   -0.087275325000000001  0                      1                             1                           0                     0.99503735295973939  0.099502088964996696  3.2763211011963063e-06        1.7615043764301391e-14              1.7615043764301391e-14       
                 4.6236958153771881e-16                3                                567.63825147147179       -1.6031133343851976e-07     -3.5229971825246997e-21        8.4063251745986209e-25             0.018676724051836933                    0.018676724051836933                      0.018676724051836933                 1.7400276372118458e-27                0.0082481603701524218                       0.0082481603701524218                         0.0082481603701524218              2.9092439484234738e-16    1.7144518585299886e-16  5.0007616402258019  -5                   -0.087275325000000001  0                      2                             2                           0                     0.99503755666184823  0.099500041552123705  7.364940268300166e-06        2.2018804705376738e-14              3.9633848469678133e-14       
# Table End
