# ODT 1.0
# Table Start
# Title: mmArchive Data Table, Thu May 16 01:40:10 EDT 2019
# Columns: {Oxs_CGEvolve:evolver:Max mxHxm} {Oxs_CGEvolve:evolver:Total energy} {Oxs_CGEvolve:evolver:Delta E} {Oxs_CGEvolve:evolver:Bracket count} {Oxs_CGEvolve:evolver:Line min count} {Oxs_CGEvolve:evolver:Conjugate cycle count} {Oxs_CGEvolve:evolver:Cycle count} {Oxs_CGEvolve:evolver:Cycle sub count} {Oxs_CGEvolve:evolver:Energy calc count} Oxs_Demag::Energy    Xyz_TestExchange::Energy {Xyz_TestExchange::Max Spin Ang} {Xyz_TestExchange::Stage Max Spin Ang} {Xyz_TestExchange::Run Max Spin Ang} Oxs_MinDriver::Iteration {Oxs_MinDriver::Stage iteration} Oxs_MinDriver::Stage Oxs_MinDriver::mx    Oxs_MinDriver::my    Oxs_MinDriver::mz   
# Units:                 A/m                                 J                                J                                 {}                                   {}                                        {}                                      {}                                   {}                                      {}                            J                       J                           deg                                 deg                                   deg                             {}                           {}                         {}                 {}                   {}                   {}           
                  2857000.4910367448                9.9376649425208567e-17               9.9376649425208567e-17               0                                    0                                         1                                       1                                    0                                       1                              8.0177933556928974e-17    1.91987158682796e-17          90.000000000000014                  90.000000000000014                    90.000000000000014             0                            0                          0                    6.7683326643566748e-16 -6.39818947177467e-17  0.03955078125      
                  2853284.8762167171                9.935459101031471e-17              -2.2058414893857086e-20               1                                    0                                         1                                       1                                    0                                       2                              8.0174467737976767e-17    1.9180123272337952e-17          89.993716396488793                  90.000000000000014                    90.000000000000014             1                            1                          0                   -1.353666532871335e-16 -5.2150531954857582e-17  0.039548906707694467
                  2085205.9707504585                9.5425192066572487e-17              -3.9293989437422233e-18               2                                    0                                         1                                       1                                    0                                       3                              7.9463172920410006e-17    1.5962019146162475e-17          88.730316250727284                  90.000000000000014                    90.000000000000014             2                            2                          0                    6.7683326643566751e-17 -5.1159076974727212e-17  0.039148219558674362
                  1447842.1228966108                9.2239579286946949e-17              -3.1856127796255378e-18               3                                    0                                         2                                       2                                    0                                       4                              7.8599850106809104e-17    1.3639729180137845e-17          87.154286189303249                  90.000000000000014                    90.000000000000014             3                            3                          0                   -1.6920831660891687e-16 -5.1820046961480794e-17  0.038628509912286703
                  1389858.4472460411                9.197187245823365e-17              -2.6770682871329908e-19               4                                    0                                         2                                       2                                    0                                       5                              7.8515468800897436e-17    1.3456403657336215e-17          87.00294003925913                   90.000000000000014                    90.000000000000014             4                            4                          0                    2.1997081159159194e-16 -4.7127160055530367e-17  0.038576291576507056
# Table End
