# ODT 1.0
# Table Start
# Title: mmArchive Data Table, Wed Jun 11 15:43:21 EDT 2014
# Columns: {Oxs_CGEvolve:evolve:Max mxHxm} {Oxs_CGEvolve:evolve:Total energy} {Oxs_CGEvolve:evolve:Delta E} {Oxs_CGEvolve:evolve:Bracket count} {Oxs_CGEvolve:evolve:Line min count} {Oxs_CGEvolve:evolve:Conjugate cycle count} {Oxs_CGEvolve:evolve:Cycle count} {Oxs_CGEvolve:evolve:Cycle sub count} {Oxs_CGEvolve:evolve:Energy calc count} Oxs_TetragonalAnisotropy::Energy Oxs_UniformExchange::Energy {Oxs_UniformExchange::Max Spin Ang} {Oxs_UniformExchange::Stage Max Spin Ang} {Oxs_UniformExchange::Run Max Spin Ang} Oxs_UZeeman::Energy  Oxs_UZeeman::B       Oxs_UZeeman::Bx      Oxs_UZeeman::By      Oxs_UZeeman::Bz      Oxs_Demag::Energy    Oxs_MinDriver::Iteration {Oxs_MinDriver::Stage iteration} Oxs_MinDriver::Stage Oxs_MinDriver::mx    Oxs_MinDriver::my    Oxs_MinDriver::mz   
# Units:                 A/m                               J                                J                               {}                                   {}                                      {}                                     {}                                  {}                                     {}                                   J                              J                              deg                                    deg                                      deg                            J                 mT                   mT                   mT                   mT                     J                       {}                           {}                         {}                 {}                   {}                   {}           
                 6035151.6306276368                7.4387749830499264e-16             7.4387749830499264e-16              0                                    0                                       1                                      1                                   0                                      1                                   -5.2196724293572823e-17           7.7585638967294695e-16             178.59867172298485                     178.59867172298485                       178.59867172298485             0                    0                    0                    0                    0                    2.0217832925618525e-17    0                            0                          0                   -0.0032088240321130413  0.016552589984772582  0.0016735888350166343
                 6038431.4365291866                7.4369506111279721e-16            -1.8243719219544396e-19              1                                    0                                       1                                      1                                   0                                      2                                   -5.2199811018216124e-17           7.7567745563183418e-16             178.58336135897505                     178.59867172298485                       178.59867172298485             0                    0                    0                    0                    0                    2.0217416499179203e-17    1                            1                          0                   -0.0032124853681360153  0.016560188759409882  0.0016736362947530074
                 6543867.4461780293                7.0725344484808479e-16            -3.644161626471247e-17              2                                    0                                       1                                      1                                   0                                      3                                   -5.278565266775525e-17           7.3990824831749631e-16             179.50439902148003                     179.50439902148003                       179.50439902148003             0                    0                    0                    0                    0                    2.0130849198343689e-17    2                            2                          0                   -0.003920726829725967  0.018080186841456021  0.001693025915236018
                 6711169.8083594786                6.7400031680625733e-16            -3.3253128041827395e-17              3                                    0                                       2                                      2                                   0                                      4                                   -5.3264851602051147e-17           7.0722215227905001e-16             176.98102463599767                     179.50439902148003                       179.50439902148003             0                    0                    0                    0                    0                    2.00430161292585e-17    3                            3                          0                   -0.0046001560750598847  0.019582944556621431  0.0017066405399219079
                 6519528.4901396595                6.4233276370368531e-16            -3.1667553102572045e-17              4                                    0                                       3                                      3                                   0                                      5                                   -5.3661533933319467e-17           6.7604328326625278e-16             179.45212021945215                     179.50439902148003                       179.50439902148003             0                    0                    0                    0                    0                    1.995101437075206e-17    4                            4                          0                   -0.005275376318771053  0.021147187773869661  0.0017286407667264176
                 6505780.8513469985                6.4238238996720741e-16             4.9626263522117123e-20              4                                    0                                       4                                      4                                   0                                      6                                   -5.3661533933319467e-17           6.7604328326625278e-16             179.45212021945215                     179.45212021945215                       179.50439902148003             4.9626263522117093e-20  50.002499937503131   50.000000000000007   0.5                  0                    1.995101437075206e-17    5                            0                          1                   -0.005275376318771053  0.021147187773869661  0.0017286407667264176
                 6024677.0520663047                6.1072243427614779e-16            -3.1659955691059657e-17              5                                    0                                       4                                      4                                   0                                      7                                   -5.3991956515755304e-17           6.4481505078620717e-16             177.5110520011271                      179.45212021945215                       179.50439902148003             4.9294331392008138e-20  50.002499937503131   50.000000000000007   0.5                  0                    1.9850045674303945e-17    6                            1                          1                   -0.0052588552617581375  0.022882144624710391  0.0017791253238707957
                 5795929.097682016                 5.7786055407607574e-16            -3.2861880200072055e-17              6                                    0                                       5                                      5                                   0                                      8                                   -5.4264710010720628e-17           6.1234197746353337e-16             178.35261527674106                     179.45212021945215                       179.50439902148003             4.833285848408745e-20  50.002499937503131   50.000000000000007   0.5                  0                    1.9734953764778912e-17    7                            2                          1                   -0.0051809372617018226  0.024901292659085889  0.0018829320839717199
                 5690216.6192231178                5.453073281184396e-16            -3.2553225957636117e-17              7                                    0                                       6                                      6                                   0                                      9                                   -5.446684944551102e-17           5.8011815348759241e-16             177.48211970199503                     179.45212021945215                       179.50439902148003             4.6684608924916287e-20  50.002499937503131   50.000000000000007   0.5                  0                    1.9609339467433354e-17    8                            3                          1                   -0.0050354639725984562  0.027172836801516265  0.0020586648398799542
                 5632921.3003818858                5.138975099439101e-16            -3.1409818174529529e-17              8                                    0                                       7                                      7                                   0                                      10                                  -5.46036837603421e-17           5.4898090808452171e-16             178.9777648730072                      179.45212021945215                       179.50439902148003             4.4343093957226113e-20  50.002499937503131   50.000000000000007   0.5                  0                    1.9475942525773277e-17    9                            4                          1                   -0.0048214953536603435  0.029668984782094482  0.0023103045074994786
                 5614812.003919797                 5.1394185303786734e-16             4.4343093957226095e-20              8                                    0                                       8                                      8                                   0                                      11                                  -5.46036837603421e-17           5.4898090808452171e-16             178.9777648730072                      178.9777648730072                        179.50439902148003             8.8686187914452226e-20  100.00499987500626   100.00000000000001   1                    0                    1.9475942525773277e-17    10                           0                          2                   -0.0048214953536603435  0.029668984782094482  0.0023103045074994786
                 5878142.8266683714                4.838841263362316e-16            -3.0057726701635661e-17              9                                    0                                       8                                      8                                   0                                      12                                  -5.4691470759621155e-17           5.1917343328045972e-16             179.28123745457012                     179.28123745457012                       179.50439902148003             6.6152430907767129e-20  100.00499987500626   100.00000000000001   1                    0                    1.9336011384485285e-17    11                           1                          2                   -0.0036989548783436074  0.032383085243712167  0.0026311699810474451
                 5910566.5144396964                4.5680150464539861e-16            -2.7082621690832999e-17              10                                   0                                       9                                      9                                   0                                      13                                  -5.4752592929845615e-17           4.9231273959636532e-16             179.12866963169358                     179.28123745457012                       179.50439902148003             4.2261569057792112e-20  100.00499987500626   100.00000000000001   1                    0                    1.9199096409821178e-17    12                           2                          2                   -0.0025074868890896584  0.035128438614108165  0.0029769863707249239
                 5922873.7770103691                4.3135381817893975e-16            -2.5447686466458909e-17              11                                   0                                       10                                     10                                  0                                      14                                  -5.4810948825413283e-17           4.670870586058901e-16             178.77525465080791                     179.28123745457012                       179.50439902148003             1.6377344536853862e-20  100.00499987500626   100.00000000000001   1                    0                    1.9061331053926113e-17    13                           3                          2                   -0.001215357551152987  0.037977874825227999  0.0033367047011612465
                 5890725.4169980139                4.0737212528012077e-16            -2.398169289881897e-17              12                                   0                                       11                                     11                                  0                                      15                                  -5.4878582771019339e-17           4.4333801755744597e-16             178.47181289315643                     179.28123745457012                       179.50439902148003            -1.1404515424702205e-20  100.00499987500626   100.00000000000001   1                    0                    1.8924095009118826e-17    14                           4                          2                    0.00017276243643760646  0.04091005954349549  0.0036916275731296508
                 5850790.904953477                 4.0737952060971021e-16             7.3953295894396449e-21              12                                   0                                       12                                     12                                  0                                      16                                  -5.4878582771019339e-17           4.4333801755744597e-16             178.47181289315643                     178.47181289315643                       179.50439902148003            -4.0091858352625589e-21  0.5                  0                    0.5                  0                    1.8924095009118826e-17    15                           0                          3                    0.00017276243643760646  0.04091005954349549  0.0036916275731296508
                 5425953.0269976128                3.8451877258566015e-16            -2.2860748024050053e-17              13                                   0                                       12                                     12                                  0                                      17                                  -5.4963044986957964e-17           4.2069826098994858e-16             178.19960579094695                     178.47181289315643                       179.50439902148003            -4.3051227268167564e-21  0.5                  0                    0.5                  0                    1.8787861705396347e-17    16                           1                          3                    5.1484241798980514e-05  0.043929823743028125  0.0040240762849678788
                 5199104.8710933924                3.6138598170550843e-16            -2.3132790880151737e-17              14                                   0                                       13                                     13                                  0                                      18                                  -5.506937274992514e-17           3.9781392558513366e-16             178.46140133926178                     178.47181289315643                       179.50439902148003            -4.6272373700115456e-21  0.5                  0                    0.5                  0                    1.8646056107669891e-17    17                           2                          3                   -6.8090812337041974e-05  0.047216707857260669  0.0043517993915131534
                 5209646.7013348304                3.3889496348726905e-16            -2.2491018218239361e-17              15                                   0                                       14                                     14                                  0                                      19                                  -5.5192724378735921e-17           3.7558650242370935e-16             177.89292277707736                     178.47181289315643                       179.50439902148003            -4.9641985759412649e-21  0.5                  0                    0.5                  0                    1.8506149640871548e-17    18                           3                          3                   -0.00016826432705928382  0.050655087509604735  0.004658777116723474
                 5242433.3414595937                3.1807677821837724e-16            -2.0818185268891842e-17              16                                   0                                       15                                     15                                  0                                      20                                  -5.5323670953775578e-17           3.5502904296245555e-16             177.85353900893904                     178.47181289315643                       179.50439902148003            -5.2996675606181006e-21  0.5                  0                    0.5                  0                    1.8376705877257883e-17    19                           4                          3                   -0.00022186274620954229  0.054078240414470409  0.0049351555341446002
                 5307040.0349039165                3.1807772937611214e-16             9.511577349110746e-22              16                                   0                                       16                                     16                                  0                                      21                                  -5.5323670953775578e-17           3.5502904296245555e-16             177.85353900893904                     177.85353900893904                       179.50439902148003            -4.348509825707029e-21  100.00000000000001  -100.00000000000001   0                    0                    1.8376705877257883e-17    20                           0                          4                   -0.00022186274620954229  0.054078240414470409  0.0049351555341446002
                 5110278.7538096868                2.9910123196972937e-16            -1.8976497406382765e-17              17                                   0                                       16                                     16                                  0                                      22                                  -5.5457854867762929e-17           3.3633793865962433e-16             178.39887699121047                     178.39887699121047                       179.50439902148003            -3.9056735739186471e-20  100.00000000000001  -100.00000000000001   0                    0                    1.8260204913607158e-17    21                           1                          4                   -0.001992690598938085  0.05741185082590837  0.005181578251334272
                 4746020.3264740286                2.8083715920281707e-16            -1.8264072766912295e-17              18                                   0                                       17                                     17                                  0                                      23                                  -5.5602434927389716e-17           3.1836406614933313e-16             176.77508505617257                     178.39887699121047                       179.50439902148003            -7.4724380308366791e-20  100.00000000000001  -100.00000000000001   0                    0                    1.8150252361182024e-17    22                           2                          4                   -0.0038124683830799374  0.060844859294212725  0.0054153533313033098
                 4480874.5454216953                2.6267946607273236e-16            -1.8157693130084697e-17              19                                   0                                       18                                     18                                  0                                      24                                  -5.576374898778179e-17           3.0051199591352293e-16             176.06867211504863                     178.39887699121047                       179.50439902148003            -1.123553917664536e-19  100.00000000000001  -100.00000000000001   0                    0                    1.8043574538757709e-17    23                           3                          4                   -0.0057324179472680393  0.064502167338081715  0.0056315896988003546
                 5029004.3167080591                2.4500983773938476e-16            -1.766962833334759e-17              20                                   0                                       19                                     19                                  0                                      25                                  -5.5938262074738442e-17           2.8315706827614031e-16             176.48032219904226                     178.39887699121047                       179.50439902148003            -1.511823414526642e-19  100.00000000000001  -100.00000000000001   0                    0                    1.7942213879435592e-17    24                           4                          4                   -0.0077133847679930713  0.06833295880979455  0.0057996409739553209
                 4992633.8224795749                2.4516102008083742e-16             1.511823414526642e-19              20                                   0                                       20                                     20                                  0                                      26                                  -5.5938262074738442e-17           2.8315706827614031e-16             176.48032219904226                     176.48032219904226                       179.50439902148003             0                    0                    0                    0                    0                    1.7942213879435592e-17    25                           0                          5                   -0.0077133847679930713  0.06833295880979455  0.0057996409739553209
                 5486184.2701518675                2.3060673142528939e-16            -1.4554288655548037e-17              21                                   0                                       20                                     20                                  0                                      27                                  -5.6094754094225542e-17           2.6884030919043706e-16             174.54647982311582                     176.48032219904226                       179.50439902148003             0                    0                    0                    0                    0                    1.786117632907787e-17    26                           1                          5                   -0.0075498373063566234  0.07174973225969801  0.0058667853423421063
                 5638237.9822131349                2.183024838224628e-16            -1.2304247602826599e-17              22                                   0                                       21                                     21                                  0                                      28                                  -5.623186407059873e-17           2.5674102601740719e-16             179.16165352579972                     179.16165352579972                       179.50439902148003             0                    0                    0                    0                    0                    1.7793321875654368e-17    27                           2                          5                   -0.0073190022594296217  0.074840995561819321  0.0058527796465978835
                 5432339.6485920716                2.0711832149613805e-16            -1.1184162326324757e-17              23                                   0                                       22                                     22                                  0                                      29                                  -5.6356921763689315e-17           2.4574342313389451e-16             171.44623742828617                     179.16165352579972                       179.50439902148003             0                    0                    0                    0                    0                    1.7731820125932848e-17    28                           3                          5                   -0.0070199105512412331  0.077831098420805572  0.0057716474830177833
                 4931669.6625422249                1.9627552298335154e-16            -1.0842798512786518e-17              24                                   0                                       23                                     23                                  0                                      30                                  -5.6476031252032162e-17           2.3507931986612034e-16             174.95765841645141                     179.16165352579972                       179.50439902148003             0                    0                    0                    0                    0                    1.7672234369263339e-17    29                           4                          5                   -0.0066304659534771361  0.080914845702777696  0.0056245593956409726
                 4917988.9136042548                1.9587904023940791e-16            -3.9648274394361074e-19              24                                   0                                       24                                     24                                  0                                      31                                  -5.6476031252032162e-17           2.3507931986612034e-16             174.95765841645141                     174.95765841645141                       179.50439902148003            -3.9648274394361074e-19  25.000000000000004   0                    25.000000000000004   0                    1.7672234369263339e-17    30                           0                          6                   -0.0066304659534771361  0.080914845702777696  0.0056245593956409726
                 4590514.5919420728                1.8470919563379182e-16            -1.1169844605616096e-17              25                                   0                                       24                                     24                                  0                                      32                                  -5.6595767437747148e-17           2.2410982516887011e-16             175.80589140999996                     175.80589140999996                       179.50439902148003            -4.153792376844709e-19  25.000000000000004   0                    25.000000000000004   0                    1.7610517140353337e-17    31                           1                          6                   -0.0061075264009269352  0.084771272996830779  0.0053975861479829499
                 4269873.6391847748                1.7366056804058973e-16            -1.1048627593202082e-17              26                                   0                                       25                                     25                                  0                                      33                                  -5.6713668516630101e-17           2.1325981546498891e-16             176.84933609148945                     176.84933609148945                       179.50439902148003            -4.3553920658439077e-19  25.000000000000004   0                    25.000000000000004   0                    1.7549960298815313e-17    32                           2                          6                   -0.0054450839896494725  0.088885552364161374  0.0051002041933568181
                 3779149.3326263349                1.6274502526455044e-16            -1.0915542776039299e-17              27                                   0                                       26                                     26                                  0                                      34                                  -5.6834232670975647e-17           2.0254513697709418e-16             176.53575894209672                     176.84933609148945                       179.50439902148003            -4.5712508475401309e-19  25.000000000000004   0                    25.000000000000004   0                    1.749124604318592e-17    33                           3                          6                   -0.0046290862089260355  0.093290833623267955  0.0047448941780578726
                 3934061.3279331862                1.5147139273685302e-16            -1.1273632527697426e-17              28                                   0                                       27                                     27                                  0                                      35                                  -5.696999019623458e-17           1.9149037435455989e-16             178.31845833164684                     178.31845833164684                       179.50439902148003            -4.8140725554128238e-19  25.000000000000004   0                    25.000000000000004   0                    1.7432415834069002e-17    34                           4                          6                   -0.0035988770026016284  0.098246378681894342  0.0043356451521927202
# Table End
