# ODT 1.0
# Table Start
# Title: mmArchive Data Table, Wed Aug 17 23:55:58 EDT 2011
# Columns: {Oxs_CGEvolve:evolve:Max mxHxm} {Oxs_CGEvolve:evolve:Total energy} {Oxs_CGEvolve:evolve:Delta E} {Oxs_CGEvolve:evolve:Bracket count} {Oxs_CGEvolve:evolve:Line min count} {Oxs_CGEvolve:evolve:Conjugate cycle count} {Oxs_CGEvolve:evolve:Cycle count} {Oxs_CGEvolve:evolve:Cycle sub count} {Oxs_CGEvolve:evolve:Energy calc count} Oxs_TetragonalAnisotropy::Energy Oxs_UniformExchange::Energy {Oxs_UniformExchange::Max Spin Ang} {Oxs_UniformExchange::Stage Max Spin Ang} {Oxs_UniformExchange::Run Max Spin Ang} Oxs_UZeeman::Energy  Oxs_UZeeman::B       Oxs_UZeeman::Bx      Oxs_UZeeman::By      Oxs_UZeeman::Bz      Oxs_Demag::Energy    Oxs_MinDriver::Iteration {Oxs_MinDriver::Stage iteration} Oxs_MinDriver::Stage Oxs_MinDriver::mx    Oxs_MinDriver::my    Oxs_MinDriver::mz   
# Units:                 A/m                               J                                J                               {}                                   {}                                      {}                                     {}                                  {}                                     {}                                   J                              J                              deg                                    deg                                      deg                            J                 mT                   mT                   mT                   mT                     J                       {}                           {}                         {}                 {}                   {}                   {}           
                 6035151.6306265583                7.438774983050032e-16             7.438774983050032e-16              0                                    0                                       1                                      1                                   1                                      1                                   -5.2196724293572798e-17           7.7585638967294695e-16             178.5986717229849                      178.5986717229849                        178.5986717229849              0                    0                    0                    0                    0                    2.0217832925629045e-17    0                            0                          0                   -0.0032088240321130382  0.016552589984772558  0.0016735888350166556
                 6038431.4365281072                7.4369506111280776e-16            -1.8243719219543813e-19              1                                    0                                       1                                      1                                   1                                      2                                   -5.2199811018216093e-17           7.7567745563183408e-16             178.58336135897483                     178.5986717229849                        178.5986717229849              0                    0                    0                    0                    0                    2.0217416499189717e-17    1                            1                          0                   -0.0032124853681359724  0.016560188759409917  0.0016736362947530135
                 6048232.0372828012                7.4314775038782756e-16            -5.4731072498020164e-19              2                                    0                                       1                                      1                                   1                                      3                                   -5.2209064658427564e-17           7.7514064882147118e-16             178.53418404988787                     178.5986717229849                        178.5986717229849              0                    0                    0                    0                    0                    2.0216166224783983e-17    2                            2                          0                   -0.0032234611223111872  0.016582984545893398  0.0016737818974336418
                 6021966.852997723                 7.4317771517434082e-16             2.9964786513264108e-20              2                                    0                                       2                                      2                                   2                                      4                                   -5.2209064658427564e-17           7.7514064882147118e-16             178.53418404988787                     178.53418404988787                       178.5986717229849              2.9964786513152097e-20  50.002499937503124   50                   0.5                  0                    2.0216166224783983e-17    3                            0                          1                   -0.0032234611223111872  0.016582984545893398  0.0016737818974336418
                 6025228.7150799809                7.4299491119772472e-16            -1.8280397661609497e-19              3                                    0                                       2                                      2                                   0                                      5                                   -5.2212145275747128e-17           7.749613471049803e-16             178.51641290316999                     178.53418404988787                       178.5986717229849              2.9962301847921506e-20  50.002499937503124   50                   0.5                  0                    2.0215747066643598e-17    4                            1                          1                   -0.0032232840659446793  0.016590632636084259  0.0016738296488928218
                 6047879.4675381677                7.4171529726871349e-16            -1.279613929011239e-18              4                                    0                                       2                                      2                                   0                                      6                                   -5.2233678010555188e-17           7.7370622244655457e-16             178.37892341381706                     178.53418404988787                       178.5986717229849              2.9944523001541276e-20  50.002499937503124   50                   0.5                  0                    2.0212808309712674e-17    5                            2                          1                   -0.0032220052376594954  0.016644166607360896  0.0016741790234000484
                 6021869.3075224981                7.4174524179171507e-16             2.9944523001579283e-20              4                                    0                                       3                                      3                                   1                                      7                                   -5.2233678010555188e-17           7.7370622244655457e-16             178.37892341381706                     178.37892341381706                       178.5986717229849              5.9889046003082553e-20  100.00499987500625   100                  1                    0                    2.0212808309712674e-17    6                            0                          2                   -0.0032220052376594954  0.016644166607360896  0.0016741790234000484
                 6025087.7471017204                7.4156239560068329e-16            -1.8284619103177494e-19              5                                    0                                       3                                      3                                   0                                      8                                   -5.2236741545417242e-17           7.7352694243532359e-16             178.35725255374251                     178.37892341381706                       178.5986717229849              5.9808371071740532e-20  100.00499987500625   100                  1                    0                    2.0212386339705193e-17    7                            1                          2                   -0.0032179660778425714  0.016651857418234557  0.001674225372645921
                 6047432.5632749116                7.4028249108522236e-16            -1.2799045154609347e-18              6                                    0                                       3                                      3                                   0                                      9                                   -5.2258153771833954e-17           7.7227197411675846e-16             178.19560698842338                     178.37892341381706                       178.5986717229849              5.9242859979521038e-20  100.00499987500625   100                  1                    0                    2.0209427880318311e-17    8                            2                          2                   -0.0031896518027698297  0.016705690585547054  0.0016745650550766902
                 6099179.4415051406                7.402216110675654e-16            -6.0880017656959568e-20              6                                    0                                       4                                      4                                   1                                      10                                  -5.2258153771833954e-17           7.7227197411675846e-16             178.19560698842338                     178.19560698842338                       178.5986717229849             -1.6371576773836109e-21  0.5                  0                    0.5                  0                    2.0209427880318311e-17    9                            0                          3                   -0.0031896518027698297  0.016705690585547054  0.0016745650550766902
                 6102329.6780225029                7.4004109889798468e-16            -1.8051216958072028e-19              7                                    0                                       4                                      4                                   0                                      11                                  -5.2261187924353413e-17           7.7209491372784089e-16             178.1725325892055                      178.19560698842338                       178.5986717229849             -1.6379030822576968e-21  0.5                  0                    0.5                  0                    2.0209010997579464e-17    10                           1                          3                   -0.0031932378158420326  0.016713296757731595  0.0016746040446241786
                 6124191.432782189                 7.3877753849386593e-16            -1.263560404118744e-18              8                                    0                                       4                                      4                                   0                                      12                                  -5.2282395190003795e-17           7.7085548849700362e-16             178.00450504052409                     178.19560698842338                       178.5986717229849             -1.6431207275259608e-21  0.5                  0                    0.5                  0                    2.0206088307593675e-17    11                           2                          3                   -0.0032183020585327209  0.016766538035979179  0.0016748920553179474
                 6176112.3585134679                7.3871610289424627e-16            -6.1435599619665379e-20              8                                    0                                       5                                      5                                   1                                      13                                  -5.2282395190003795e-17           7.7085548849700362e-16             178.00450504052409                     178.00450504052409                       178.5986717229849             -6.3078720347241557e-20  100                 -100                  0                    0                    2.0206088307593675e-17    12                           0                          4                   -0.0032183020585327209  0.016766538035979179  0.0016748920553179474
                 6179193.019799022                 7.3853756429023109e-16            -1.7853860401517756e-19              9                                    0                                       5                                      5                                   0                                      14                                  -5.2285401033684415e-17           7.7068058437361656e-16             177.98101145856234                     178.00450504052409                       178.5986717229849             -6.3295466732358155e-20  100                 -100                  0                    0                    2.0205676417031197e-17    13                           1                          4                   -0.0032293605475692982  0.016774062470899038  0.001674924090424378
                 6200562.18193145                  7.3728781953576906e-16            -1.2497447544620312e-18              10                                   0                                       5                                      5                                   0                                      15                                  -5.2306410776051757e-17           7.6945625357257342e-16             177.81222017449861                     178.00450504052409                       178.5986717229849             -6.4811989761248753e-20  100                 -100                  0                    0                    2.0202788729008603e-17    14                           2                          4                   -0.0033067341714923051  0.016826732027230062  0.0016751632576260853
                 6149017.1852633543                7.3735263152553034e-16             6.4811989761282011e-20              10                                   0                                       6                                      6                                   1                                      16                                  -5.2306410776051757e-17           7.6945625357257342e-16             177.81222017449861                     177.81222017449861                       178.5986717229849              0                    0                    0                    0                    0                    2.0202788729008603e-17    15                           0                          5                   -0.0033067341714923051  0.016826732027230062  0.0016751632576260853
                 6152059.1213083481                7.3717360618932205e-16            -1.7902533620829048e-19              11                                   0                                       6                                      6                                   0                                      17                                  -5.2309404062544487e-17           7.692806386991963e-16             177.7864694377437                      177.81222017449861                       178.5986717229849              0                    0                    0                    0                    0                    2.0202371552670117e-17    16                           1                          5                   -0.0033103409321991423  0.01683427882127856  0.0016751965072703931
                 6173156.5386283929                7.3592046432372143e-16            -1.2531418656006207e-18              12                                   0                                       6                                      6                                   0                                      18                                  -5.2330324584628521e-17           7.6805134200977775e-16             177.60261420088287                     177.81222017449861                       178.5986717229849              0                    0                    0                    0                    0                    2.0199446898572167e-17    17                           2                          5                   -0.0033355505802702555  0.016887105007150082  0.0016754443934154466
                 6168318.9059025785                7.3583771750918644e-16            -8.2746814534986805e-20              12                                   0                                       7                                      7                                   1                                      19                                  -5.2330324584628521e-17           7.6805134200977775e-16             177.60261420088287                     177.60261420088287                       178.5986717229849             -8.2746814535035338e-20  25                   0                    25                   0                    2.0199446898572167e-17    18                           0                          6                   -0.0033355505802702555  0.016887105007150082  0.0016754443934154466
                 6171310.3924279977                7.3565918548751491e-16            -1.7853202167153058e-19              13                                   0                                       7                                      7                                   0                                      20                                  -5.2333298005299888e-17           7.6787624810160973e-16             177.57619057576562                     177.60261420088287                       178.5986717229849             -8.2792947275702978e-20  25                   0                    25                   0                    2.0199028338480764e-17    19                           1                          6                   -0.0033391606971203882  0.016896519852184298  0.001675470850858865
                 6192052.3934236895                7.3440950128680709e-16            -1.2496842007078175e-18              14                                   0                                       7                                      7                                   0                                      21                                  -5.2354078957994901e-17           7.6665060209775424e-16             177.58865235827002                     177.60261420088287                       178.5986717229849             -8.3115872073714133e-20  25                   0                    25                   0                    2.0196094019121514e-17    20                           2                          6                   -0.0033643939422696805  0.016962422872186553  0.0016756717434927688
# Table End
