# ODT 1.0
# Table Start
# Title: mmArchive Data Table, Tue May 14 03:20:21 EDT 2019
# Columns: {Xyz_CGEvolve:evolver:Max mxHxm} {Xyz_CGEvolve:evolver:Total energy} {Xyz_CGEvolve:evolver:Delta E} {Xyz_CGEvolve:evolver:Bracket count} {Xyz_CGEvolve:evolver:Line min count} {Xyz_CGEvolve:evolver:Conjugate cycle count} {Xyz_CGEvolve:evolver:Cycle count} {Xyz_CGEvolve:evolver:Cycle sub count} {Xyz_CGEvolve:evolver:Energy calc count} Oxs_CubicAnisotropy::Energy Oxs_UniformExchange::Energy {Oxs_UniformExchange::Max Spin Ang} {Oxs_UniformExchange::Stage Max Spin Ang} {Oxs_UniformExchange::Run Max Spin Ang} Oxs_UZeeman::Energy  Oxs_UZeeman::B       Oxs_UZeeman::Bx      Oxs_UZeeman::By      Oxs_UZeeman::Bz      Oxs_Demag::Energy    Oxs_MinDriver::Iteration {Oxs_MinDriver::Stage iteration} Oxs_MinDriver::Stage Oxs_MinDriver::mx    Oxs_MinDriver::my    Oxs_MinDriver::mz   
# Units:                 A/m                                 J                                J                                 {}                                   {}                                        {}                                      {}                                   {}                                      {}                                 J                           J                              deg                                    deg                                      deg                            J                 mT                   mT                   mT                   mT                     J                       {}                           {}                         {}                 {}                   {}                   {}           
                  794588.21803792415                4.1830221976305582e-17               4.1830221976305582e-17               0                                    0                                         1                                       1                                    1                                       1                                 0                           1.44e-17                        90.000000000000014                     90.000000000000014                       90.000000000000014             0                    0                    0                    0                    0                    2.7430221976305585e-17    0                            0                          0                    0                    0                    0.099999999999999992
                  794476.76342927699                4.1826184248163742e-17              -4.0377281418404817e-21               1                                    0                                         1                                       1                                    1                                       2                                -3.9702082526094787e-27         1.4396136124088166e-17             89.987303109095308                     90.000000000000014                       90.000000000000014             0                    0                    0                    0                    0                    2.7430048128045786e-17    1                            1                          0                    4.7878367936959876e-23  7.2759576141834256e-18  0.10000203671035281
                  792795.384222219                  4.1765681786208238e-17              -6.0502461955503549e-20               2                                    0                                         1                                       1                                    1                                       3                                -1.0163639547754036e-24         1.4338256157408828e-17             89.796776242679741                     90.000000000000014                       90.000000000000014             0                    0                    0                    0                    0                    2.7427426645163367e-17    2                            2                          0                   -9.9920072216264091e-22  2.6193447411060332e-17  0.10003244109842536
                  763495.44138021814                4.0814944879417595e-17              -9.5073690679064322e-19               3                                    0                                         1                                       1                                    1                                       4                                -2.5957719335097794e-22         1.343327749463714e-17             86.731486565980347                     90.000000000000014                       90.000000000000014             0                    0                    0                    0                    0                    2.7381926961973806e-17    3                            3                          0                   -2.4158453015843404e-20 -7.2759576141834256e-18  0.10048096786663942
                  647169.25014749146                3.8089410619395465e-17              -2.7255342600221301e-18               4                                    0                                         1                                       1                                    1                                       5                                -3.9076815973892242e-21         1.089921609580369e-17             76.979671189372937                     90.000000000000014                       90.000000000000014             0                    0                    0                    0                    0                    2.7194102205189166e-17    4                            4                          0                    2.3234747459355273e-19 -1.0186340659856796e-17  0.10140296611303096
                  659355.94103304495                3.8089410619395471e-17               6.1629758220391547e-33               4                                    0                                         2                                       2                                    2                                       6                                -3.9076815973892242e-21         1.089921609580369e-17             76.979671189372937                     76.979671189372937                       90.000000000000014            -3.9790393202565615e-37  50.002499937503124   50                   0.5                  0                    2.7194102205189166e-17    5                            0                          1                    2.3234747459355273e-19 -1.0186340659856796e-17  0.10140296611303096
                  659272.95650087588                3.8085719828388777e-17              -3.690791006694414e-21               5                                    0                                         2                                       2                                    0                                       7                                -3.9153155296991685e-21         1.0896074210644424e-17             76.966454065998988                     76.979671189372937                       90.000000000000014            -1.6848167679992645e-22  50.002499937503124   50                   0.5                  0                    2.7193729414950857e-17    6                            1                          1                    1.052999962371349e-05  1.0517628175148274e-08  0.10140360604678844
                  658021.47861889633                3.8030428092103707e-17              -5.5291736285069788e-20               6                                    0                                         2                                       2                                    0                                       8                                -4.0307338507517403e-21         1.0849035857469594e-17             76.76813657661404                      76.979671189372937                       90.000000000000014            -2.6956957863751298e-21  50.002499937503124   50                   0.5                  0                    2.7188118664271244e-17    7                            2                          1                    0.00016847930390197175  1.6827464736561524e-07  0.1014130255767466 
                  636308.78926162911                3.7164719745391411e-17              -8.6570834671229564e-19               7                                    0                                         2                                       2                                    0                                       9                                -6.1019390380816582e-21         1.0120397859678474e-17             73.58147239734393                      76.979671189372937                       90.000000000000014            -4.3124312923495303e-20  50.002499937503124   50                   0.5                  0                    2.709354813767451e-17    8                            3                          1                    0.0026952426852868134  2.6872431642725131e-06  0.10151776087952979
                  549299.41787404101                3.4723421998027068e-17              -2.4412977473643435e-18               8                                    0                                         2                                       2                                    0                                       10                               -1.4925181065075991e-20         8.1683248525399828e-18             63.488814535222268                     76.979671189372937                       90.000000000000014            -1.6991252586096072e-19  50.002499937503124   50                   0.5                  0                    2.673993485241312e-17    9                            4                          1                    0.010619428941359138  1.0392495090277224e-05  0.10128380439978374
                  569596.53487861191                3.4553509472166104e-17              -1.699125258609638e-19               8                                    0                                         3                                       3                                    1                                       11                               -1.4925181065075991e-20         8.1683248525399828e-18             63.488814535222268                     63.488814535222268                       90.000000000000014            -3.3982505172192144e-19  100.00499987500625   100                  1                    0                    2.673993485241312e-17    10                           0                          2                    0.010619428941359138  1.0392495090277224e-05  0.10128380439978374
                  569549.12740689458                3.4550009230668394e-17              -3.5002414977098319e-21               9                                    0                                         3                                       3                                    0                                       12                               -1.4938170026549711e-20         8.1662714475505523e-18             63.476868245799245                     63.488814535222268                       90.000000000000014            -3.4061609120338476e-19  100.00499987500625   100                  1                    0                    2.673929204434778e-17    11                           1                          2                    0.010644148680324459  1.0416978131511132e-05  0.10128220890686991
                  568833.68821167655                3.449756612159313e-17              -5.2443109075264659e-20               10                                   0                                         3                                       3                                    0                                       13                               -1.5133719735453684e-20         8.1355520165232899e-18             63.297632897994433                     63.488814535222268                       90.000000000000014            -3.5248144874111711e-19  100.00499987500625   100                  1                    0                    2.6729629273546415e-17    12                           2                          2                    0.011014937431347604  1.0784181230381363e-05  0.10125809789683267
                  556322.16925148736                3.3674636594945859e-17              -8.2292952664727063e-19               11                                   0                                         3                                       3                                    0                                       14                               -1.8435632750630004e-20         7.6654464127882966e-18             60.4207528610089                       63.488814535222268                       90.000000000000014            -5.4224517394948305e-19  100.00499987500625   100                  1                    0                    2.6569870988857675e-17    13                           3                          2                    0.016944995268565154  1.664173561895004e-05  0.10082707461132417
                  506543.19689920411                3.1317943975264405e-17              -2.3566926196814534e-18               12                                   0                                         3                                       3                                    0                                       15                               -3.046940479389919e-20         6.4738310854425913e-18             51.331571232412117                     63.488814535222268                       90.000000000000014            -1.1365919129952341e-18  100.00499987500625   100                  1                    0                    2.6011174207610946e-17    14                           4                          2                    0.035518152020154063  3.452609469954477e-05  0.098940884256039821
                  442437.29301523429                3.2454530364084484e-17               1.1365863888200782e-18               12                                   0                                         4                                       4                                    1                                       16                               -3.046940479389919e-20         6.4738310854425913e-18             51.331571232412117                     51.331571232412117                       90.000000000000014            -5.524175151925553e-24  0.5                  0                    0.5                  0                    2.6011174207610946e-17    15                           0                          3                    0.035518152020154063  3.452609469954477e-05  0.098940884256039821
                  442370.17936357245                3.2452334819173206e-17              -2.1955449112778293e-21               13                                   0                                         4                                       4                                    0                                       17                               -3.0483277328216338e-20         6.4726559080720259e-18             51.320398525716655                     51.331571232412117                       90.000000000000014            -5.5267528528725779e-24  0.5                  0                    0.5                  0                    2.6010167715182252e-17    16                           1                          3                    0.035519557547062833  3.4542205330464636e-05  0.098936541548626564
                  441359.989064008                  3.2419459067193997e-17              -3.2875751979208801e-20               14                                   0                                         4                                       4                                    0                                       18                               -3.0691573821462604e-20         6.4551041443894855e-18             51.15272536626636                      51.331571232412117                       90.000000000000014            -5.5654060151634409e-24  0.5                  0                    0.5                  0                    2.5995052062031988e-17    17                           2                          3                    0.035540629924314907  3.4783787594766181e-05  0.09887122328778207
                  424362.76759777428                3.1908564266750716e-17              -5.1089480044328069e-19               15                                   0                                         4                                       4                                    0                                       19                               -3.4069194169208533e-20         6.1939120795876361e-18             48.450896226186607                     51.331571232412117                       90.000000000000014            -6.1800763354508532e-24  0.5                  0                    0.5                  0                    2.5748727561408622e-17    18                           3                          3                    0.0358749716910765   3.8625477096599935e-05  0.097781459073458726
                  364126.24223439174                3.0508187755543424e-17              -1.400376511207292e-18               16                                   0                                         4                                       4                                    0                                       20                               -4.4860238477113488e-20         5.6235818286245253e-18             39.822456868359765                     51.331571232412117                       90.000000000000014            -8.0376918949590423e-24  0.5                  0                    0.5                  0                    2.4929474203087911e-17    19                           4                          3                    0.036885409554443589  5.0235574343509502e-05  0.093846742801555305
                  416050.70936869289                3.1688528898977513e-17               1.1803411434340885e-18               16                                   0                                         5                                       5                                    1                                       21                               -4.4860238477113488e-20         5.6235818286245253e-18             39.822456868359765                     39.822456868359765                       90.000000000000014             1.1803331057421949e-18  100                 -100                  0                    0                    2.4929474203087911e-17    20                           0                          4                    0.036885409554443589  5.0235574343509502e-05  0.093846742801555305
                  416031.07937854662                3.1686105999629281e-17              -2.4228993482314039e-21               17                                   0                                         5                                       5                                    0                                       22                               -4.4867087973101492e-20         5.6232901687033513e-18             39.814912516263369                     39.822456868359765                       90.000000000000014             1.1793208964673111e-18  100                 -100                  0                    0                    2.492836202243172e-17    21                           1                          4                    0.036853778014603461  5.0235913227481066e-05  0.093840834249480282
                  415733.10371554334                3.164978458883063e-17              -3.6321410798651664e-20               18                                   0                                         5                                       5                                    0                                       23                               -4.4970333362950857e-20         5.6189493816775417e-18             39.701641742775763                     39.822456868359765                       90.000000000000014             1.1641378112619319e-18  100                 -100                  0                    0                    2.4911667729254106e-17    22                           2                          4                    0.03637930660193537  5.0240963806507348e-05  0.093752082511688276
                  410082.30474946665                3.1074504850731149e-17              -5.7527973809948069e-19               19                                   0                                         5                                       5                                    0                                       24                               -4.6746460289642167e-20         5.5582341936311236e-18             37.864107153757281                     39.822456868359765                       90.000000000000014             9.2125073576765681e-19  100                 -100                  0                    0                    2.4641766381622007e-17    23                           3                          4                    0.028789085492739272  5.0313531153815712e-05  0.092301033169937083
                  396836.25879545574                2.9348865269182113e-17              -1.7256395815490364e-18               20                                   0                                         5                                       5                                    0                                       25                               -5.3657813786432876e-20         5.4753476124313385e-18             31.865479712512951                     39.822456868359765                       90.000000000000014             1.5976820796354081e-19  100                 -100                  0                    0                    2.3767407262573668e-17    24                           4                          4                    0.0049927564988606491  5.0445128147459037e-05  0.087386393943759577
                  329999.1651825452                 2.9189097061218575e-17              -1.5976820796353773e-19               20                                   0                                         6                                       6                                    1                                       26                               -5.3657813786432876e-20         5.4753476124313385e-18             31.865479712512951                     31.865479712512951                       90.000000000000014             0                    0                    0                    0                    0                    2.3767407262573668e-17    25                           0                          5                    0.0049927564988606491  5.0445128147459037e-05  0.087386393943759577
                  329980.71761069249                2.9187722511210912e-17              -1.3745500076630735e-21               21                                   0                                         6                                       6                                    0                                       27                               -5.3668510246602339e-20         5.4753762796127843e-18             31.860046033689542                     31.865479712512951                       90.000000000000014             0                    0                    0                    0                    0                    2.3766014741844731e-17    26                           1                          5                    0.0049934073260769199  5.0445558436730786e-05  0.087378481910899627
                  329701.9869589138                 2.9167119946707271e-17              -2.0602564503640939e-20               22                                   0                                         6                                       6                                    0                                       28                               -5.3829004699034573e-20         5.4758284676386074e-18             31.778463407364075                     31.865479712512951                       90.000000000000014             0                    0                    0                    0                    0                    2.3745120483767697e-17    27                           2                          5                    0.0050031661831158418  5.0451979585049411e-05  0.087259677405464336
                  324739.9991465137                 2.8841666550984263e-17              -3.2545339572300751e-19               23                                   0                                         6                                       6                                    0                                       29                               -5.6404602282541601e-20         5.4887134387500624e-18             31.034383742597385                     31.865479712512951                       90.000000000000014             0                    0                    0                    0                    0                    2.3409357714516742e-17    28                           3                          5                    0.0051583771135623483  5.0546285103842092e-05  0.085327752260885806
                  303750.51179694792                2.7878741022350595e-17              -9.6292552863366828e-19               24                                   0                                         6                                       6                                    0                                       30                               -6.4395376134658836e-20         5.5975952357922667e-18             35.170481306479715                     35.170481306479715                       90.000000000000014             0                    0                    0                    0                    0                    2.2345541162692989e-17    29                           4                          5                    0.0056336964702445999  5.0741194996488772e-05  0.078906915685947071
                  304479.4059654217                 2.7878335092790627e-17              -4.0592955996794774e-22               24                                   0                                         7                                       7                                    1                                       31                               -6.4395376134658836e-20         5.5975952357922667e-18             35.170481306479715                     35.170481306479715                       90.000000000000014            -4.0592955997201853e-22  25                   0                    25                   0                    2.2345541162692989e-17    30                           0                          6                    0.0056336964702445999  5.0741194996488772e-05  0.078906915685947071
                  304452.88462727756                2.7877070611421886e-17              -1.2644813687414404e-21               25                                   0                                         7                                       7                                    0                                       32                               -6.4404962423166661e-20         5.5977340750082085e-18             35.176024318052363                     35.176024318052363                       90.000000000000014            -4.1420454531933273e-22  25                   0                    25                   0                    2.234415570338216e-17    31                           1                          6                    0.0056343437755332617  5.1775568164927241e-05  0.078898826194270605
                  304052.3983522752                 2.7858107777371537e-17              -1.8962834050348928e-20               26                                   0                                         7                                       7                                    0                                       33                               -6.4548751422784655e-20         5.5998239317021976e-18             35.259170436705176                     35.259170436705176                       90.000000000000014            -5.3833524598566901e-22  25                   0                    25                   0                    2.2323370932338115e-17    32                           2                          6                    0.0056440495650522792  6.7291905748202409e-05  0.078777374309608378
                  297158.4385611224                 2.7556004716208771e-17              -3.0210306116276585e-19               27                                   0                                         7                                       7                                    0                                       34                               -6.6843701102378752e-20         5.6351106464651053e-18             36.589659789255521                     36.589659789255521                       90.000000000000014            -2.5250254051547895e-21  25                   0                    25                   0                    2.19902627962512e-17    33                           3                          6                    0.0057983493244536874  0.00031562817564435608  0.076806826141495602
                  278683.646654788                  2.6631233439244181e-17              -9.2477127696458968e-19               28                                   0                                         7                                       7                                    0                                       35                               -7.380198018706701e-20         5.7683820846072723e-18             40.769022641823788                     40.769022641823788                       90.000000000000014            -8.732797984073849e-21  25                   0                    25                   0                    2.0945386132808049e-17    34                           4                          6                    0.0062699969920401869  0.0010915997480092417  0.070311962965401861