# ODT 1.0
# Table Start
# Title: mmArchive Data Table, Wed Jun 11 23:24:05 EDT 2014
# Columns: {Xf_ThermSpinXferEvolve:evolve:Total energy} {Xf_ThermSpinXferEvolve:evolve:Energy calc count} {Xf_ThermSpinXferEvolve:evolve:Max dm/dt} Xf_ThermSpinXferEvolve:evolve:dE/dt {Xf_ThermSpinXferEvolve:evolve:Delta E} Xf_ThermSpinXferEvolve:evolve:Temperature {Xf_ThermSpinXferEvolve:evolve:average J} Oxs_UniaxialAnisotropy::Energy Oxs_UniformExchange::Energy {Oxs_UniformExchange::Max Spin Ang} {Oxs_UniformExchange::Stage Max Spin Ang} {Oxs_UniformExchange::Run Max Spin Ang} Oxs_TimeDriver::Iteration {Oxs_TimeDriver::Stage iteration} Oxs_TimeDriver::Stage Oxs_TimeDriver::mx   Oxs_TimeDriver::my   Oxs_TimeDriver::mz   {Oxs_TimeDriver::Last time step} {Oxs_TimeDriver::Simulation time}
# Units:                        J                                              {}                                          deg/ns                                   J/s                                    J                                        K                                       A/m^2                                 J                             J                              deg                                    deg                                      deg                              {}                            {}                          {}                   {}                   {}                   {}                          s                                 s                
                        7.0655710435064788e-25                            1                                             35.036508061489876                     2.4306313417071717e-14                   0                                        300                                       181818181818.18182                   7.0655710435064788e-25          0                               0                                      0                                        0                                0                             0                           0                     0.0017453283658983088  0                    0.99999847691328769        0                                0                         
                        6.374360006769339e-22                            3                                             247824.96738964744                    -5.8081130156223439e-08                   6.3672944357258333e-22                      300                                       181818181818.18182                   1.8743653553821615e-23          6.1869234712311228e-22             1.9113954992630788                     1.9113954992630788                       1.9113954992630788               1                             1                           0                     0.0019853786726877248 -3.6004483137404923e-05  0.99995959356540309        1e-14                            1e-14                     
                        3.2029059682942999e-21                            5                                             279478.8716479867                     -6.0067240296336635e-08                   2.565469967617366e-21                      300                                       181818181818.18182                   8.9942418915673024e-23          3.1129635493786267e-21             3.4984935203541405                     3.4984935203541405                       3.4984935203541405               2                             2                           0                     0.001753675146542736  0.00046990851431635491  0.99980607606428462        1e-14                            2e-14                     
                        5.7754965772092613e-21                            7                                             234930.34753956087                    -6.1988266375919903e-08                   2.5725906089149614e-21                      300                                       181818181818.18182                   1.6111189223878764e-22          5.6143846849704737e-21             5.3306131819977427                     5.3306131819977427                       5.3306131819977427               3                             3                           0                     0.00074316629681221865  0.0010938687395809486  0.99965258024278381        1e-14                            2.9999999999999998e-14       
                        8.3578187913034328e-21                            9                                             234890.76458651928                    -6.182035905252434e-08                   2.5823222140941711e-21                      300                                       181818181818.18182                   2.2940801740551938e-22          8.1284107738979131e-21             6.3537194273826731                     6.3537194273826731                       6.3537194273826731               4                             4                           0                     0.00059251996591320978  0.0013294548057920905  0.99950522698536914        1e-14                            4e-14                     
                        8.3578187913034328e-21                            10                                            234890.76458651928                    -6.182035905252434e-08                   0                                        300                                       181818181818.18182                   2.2940801740551938e-22          8.1284107738979131e-21             6.3537194273826731                     6.3537194273826731                       6.3537194273826731               5                             0                           1                     0.00059251996591320978  0.0013294548057920905  0.99950522698536914        0                                4e-14                     
                        1.0976032922282092e-20                            12                                            249903.44182718263                    -6.015957231487886e-08                   2.6182141309786593e-21                      300                                       181818181818.18182                   2.9532344833558656e-22          1.0680709473946505e-20             6.8813110805027211                     6.8813110805027211                       6.8813110805027211               6                             1                           1                     0.0017102492589909852  0.0019920099616850739  0.99936294534510439        1e-14                            5.0000000000000002e-14       
                        1.4084916005222789e-20                            14                                            265340.70068704057                    -6.2671183864105288e-08                   3.1088830829406966e-21                      300                                       181818181818.18182                   3.6996537728033852e-22          1.371495062794245e-20             7.4988395537832764                     7.4988395537832764                       7.4988395537832764               7                             2                           1                     0.0020503040923145394  0.0027147909730137602  0.99920182365401           1e-14                            5.9999999999999997e-14       
                        1.7321255341911107e-20                            16                                            218528.52973009148                    -5.7050693205267685e-08                   3.236339336688318e-21                      300                                       181818181818.18182                   4.4550558898264155e-22          1.6875749752928464e-20             7.9702940629136263                     7.9702940629136263                       7.9702940629136263               8                             3                           1                     0.0017506822332803609  0.0026102639272531768  0.99903870288229202        1e-14                            7.0000000000000005e-14       
                        2.0305944161411555e-20                            18                                            270023.88159902603                    -7.3107640407575829e-08                   2.9846888195004484e-21                      300                                       181818181818.18182                   5.1825110460699331e-22          1.9787693056804562e-20             9.4792746585827388                     9.4792746585827388                       9.4792746585827388               9                             4                           1                     0.0018040428258858147  0.0022844124079863214  0.99888157333469063        1e-14                            8e-14                     
                        2.0305944161411555e-20                            19                                            270023.88159902603                    -7.3107640407575829e-08                   0                                        300                                       181818181818.18182                   5.1825110460699331e-22          1.9787693056804562e-20             9.4792746585827388                     9.4792746585827388                       9.4792746585827388               10                            0                           2                     0.0018040428258858147  0.0022844124079863214  0.99888157333469063        0                                8e-14                     
                        2.3389250523145392e-20                            21                                            260088.81624436929                    -6.7446195536720137e-08                   3.0833063617338378e-21                      300                                       181818181818.18182                   6.0048190264327272e-22          2.2788768620502121e-20             11.312510808079905                     11.312510808079905                       11.312510808079905               11                            1                           2                     0.0022810467977970772  0.002123544625286084  0.99870394915461436        1e-14                            8.9999999999999995e-14       
                        2.5620974046918392e-20                            23                                            218125.18327034666                    -6.1447268661291844e-08                   2.2317235237730016e-21                      300                                       181818181818.18182                   6.656344883632175e-22          2.4955339558555176e-20             11.767210727735161                     11.767210727735161                       11.767210727735161               12                            2                           2                     0.0032294562619295066  0.0024568007561645709  0.99856309888674655        1e-14                            1e-13                     
                        2.8066615260069195e-20                            25                                            271354.2780852401                     -7.6065294027197838e-08                   2.4456412131508018e-21                      300                                       181818181818.18182                   7.287509643614378e-22          2.7337864295707757e-20             11.596003466502973                     11.767210727735161                       11.767210727735161               13                            3                           2                     0.003267939165601628  0.0026496140595869354  0.99842664452086272        1e-14                            1.1e-13                   
                        3.1070111658821649e-20                            27                                            280764.82359672192                    -6.8443442692984006e-08                   3.0034963987524548e-21                      300                                       181818181818.18182                   8.0722079167713387e-22          3.0262890867144519e-20             12.135974435820456                     12.135974435820456                       12.135974435820456               14                            4                           2                     0.0027875451592929341  0.0028578879662482458  0.99825680220515334        1e-14                            1.1999999999999999e-13       
                        3.1070111658821649e-20                            28                                            280764.82359672192                    -6.8443442692984006e-08                   0                                        300                                       181818181818.18182                   8.0722079167713387e-22          3.0262890867144519e-20             12.135974435820456                     12.135974435820456                       12.135974435820456               15                            0                           3                     0.0027875451592929341  0.0028578879662482458  0.99825680220515334        0                                1.1999999999999999e-13       
                        3.3913902315062354e-20                            30                                            269316.89203292172                    -7.1235684697867754e-08                   2.843790656240705e-21                      300                                       181818181818.18182                   8.9636795983570923e-22          3.3017534355226647e-20             13.421585232400684                     13.421585232400684                       13.421585232400684               16                            1                           3                     0.0033175458250230367  0.0038081944196573536  0.99806386593322005        1e-14                            1.3e-13                   
                        3.69305761023737e-20                            32                                            260354.500383076                      -6.7315929801387241e-08                   3.0166737873113479e-21                      300                                       181818181818.18182                   9.8468501066315384e-22          3.5945891091710547e-20             13.007019508212036                     13.421585232400684                       13.421585232400684               17                            2                           3                     0.0034400558768072722  0.0036507540187068507  0.99787278939249302        1e-14                            1.4000000000000001e-13       
                        3.9814529408209751e-20                            34                                            286696.48128475511                    -7.3575299400790521e-08                   2.8839533058360498e-21                      300                                       181818181818.18182                   1.0668624684117236e-21          3.8747666939798027e-20             13.035856187217769                     13.421585232400684                       13.421585232400684               18                            3                           3                     0.0036247801239209713  0.0026699296131777852  0.99769476248200306        1e-14                            1.4999999999999999e-13       
                        4.3214331780738922e-20                            36                                            249513.77944945646                    -7.2661242236735381e-08                   3.3998023725291703e-21                      300                                       181818181818.18182                   1.1630066090997118e-21          4.2051325171639214e-20             13.407663835467028                     13.421585232400684                       13.421585232400684               19                            4                           3                     0.0043247011942187143  0.0016402029034829028  0.99748647265934498        1e-14                            1.6e-13                   
                        4.3214331780738922e-20                            37                                            249513.77944945646                    -7.2661242236735381e-08                   0                                        300                                       181818181818.18182                   1.1630066090997118e-21          4.2051325171639214e-20             13.407663835467028                     13.407663835467028                       13.421585232400684               20                            0                           4                     0.0043247011942187143  0.0016402029034829028  0.99748647265934498        0                                1.6e-13                   
                        4.5700623961059634e-20                            39                                            285363.15764893603                    -7.1576020269403856e-08                   2.4862921803207134e-21                      300                                       181818181818.18182                   1.2421214788478156e-21          4.4458502482211822e-20             13.44905148341555                      13.44905148341555                        13.44905148341555                21                            1                           4                     0.004298282576422347  0.0010875222101846399  0.99731489514677196        1e-14                            1.7000000000000001e-13       
                        4.7851575196244568e-20                            41                                            263601.50552178937                    -6.3613647359713736e-08                   2.150951235184934e-21                      300                                       181818181818.18182                   1.3006853332276061e-21          4.6550889863016967e-20             13.895905498842124                     13.895905498842124                       13.895905498842124               22                            2                           4                     0.0048148481301283361  0.00046629386056846615  0.99718792684777036        1e-14                            1.7999999999999999e-13       
                        4.9195514111237084e-20                            43                                            262212.56783905299                    -7.4245022748310028e-08                   1.3439389149925141e-21                      300                                       181818181818.18182                   1.3301780172266133e-21          4.7865336094010468e-20             14.375855774899067                     14.375855774899067                       14.375855774899067               23                            3                           4                     0.0051234959724056114 -0.00064328998114019308  0.99712413324964089        1e-14                            1.9e-13                   
                        4.9892826134893026e-20                            45                                            267532.2409480107                     -7.1772537835848014e-08                   6.9731202365593965e-22                      300                                       181818181818.18182                   1.3551662218765162e-21          4.8537659913016506e-20             14.295072845697282                     14.375855774899067                       14.375855774899067               24                            4                           4                     0.0041564683107745684 -0.00025294993065262287  0.99706991543667767        1e-14                            2.0000000000000001e-13       
                        4.9892826134893026e-20                            46                                            267532.2409480107                     -7.1772537835848014e-08                   0                                        300                                       181818181818.18182                   1.3551662218765162e-21          4.8537659913016506e-20             14.295072845697282                     14.295072845697282                       14.375855774899067               25                            0                           5                     0.0041564683107745684 -0.00025294993065262287  0.99706991543667767        0                                2.0000000000000001e-13       
                        5.123412908665488e-20                            48                                            376582.46419971262                    -7.7737183948191847e-08                   1.3413029517618567e-21                      300                                       181818181818.18182                   1.4025188753727228e-21          4.9831610211282156e-20             14.810715545436457                     14.810715545436457                       14.810715545436457               26                            1                           5                     0.0043524107664733788  0.00044098454928489291  0.996967126122007          1e-14                            2.0999999999999999e-13       
                        5.4294130126939563e-20                            50                                            342445.14275080833                    -8.4451778442872642e-08                   3.0600010402846869e-21                      300                                       181818181818.18182                   1.4801254606940561e-21          5.2814004666245508e-20             14.197649992744278                     14.810715545436457                       14.810715545436457               27                            2                           5                     0.0056646447447177249 -0.00033803594017281198  0.99679892145635207        1e-14                            2.2e-13                   
                        5.619238495902354e-20                            52                                            283019.61474722048                    -7.7890549520220198e-08                   1.8982548320839745e-21                      300                                       181818181818.18182                   1.5123257727908253e-21          5.4680059186232714e-20             13.99506463204647                      14.810715545436457                       14.810715545436457               28                            3                           5                     0.0059875612581149571 -0.0012109462380445011  0.9967289640510052         1e-14                            2.2999999999999998e-13       
                        5.7667774988607856e-20                            54                                            281197.88714923733                    -8.0673228877922059e-08                   1.4753900295843171e-21                      300                                       181818181818.18182                   1.5516025513362275e-21          5.6116172437271634e-20             14.541141634601312                     14.810715545436457                       14.810715545436457               29                            4                           5                     0.0045197394572397158 -0.0021200824928980151  0.99664366478954169        1e-14                            2.3999999999999999e-13       
                        5.7667774988607856e-20                            55                                            281197.88714923733                    -8.0673228877922059e-08                   0                                        300                                       181818181818.18182                   1.5516025513362275e-21          5.6116172437271634e-20             14.541141634601312                     14.541141634601312                       14.810715545436457               30                            0                           6                     0.0045197394572397158 -0.0021200824928980151  0.99664366478954169        0                                2.3999999999999999e-13       
                        6.0046060065023893e-20                            57                                            283925.53300899395                    -8.0140354131516981e-08                   2.3782850764160382e-21                      300                                       181818181818.18182                   1.6265087119059607e-21          5.8419551353117939e-20             15.06933239657088                      15.06933239657088                        15.06933239657088                31                            1                           6                     0.0043140195044601565 -0.0031105892343545115  0.99648122455391597        1e-14                            2.4999999999999999e-13       
                        6.1897534001552782e-20                            59                                            300459.30016438558                    -8.7979520197664922e-08                   1.8514739365288862e-21                      300                                       181818181818.18182                   1.6669726613188812e-21          6.0230561340233907e-20             14.825456090514095                     15.06933239657088                        15.06933239657088                32                            2                           6                     0.0056967792925294788 -0.0034290516833571779  0.99639323987255857        1e-14                            2.6e-13                   
                        6.4234211986804852e-20                            61                                            300785.13704600191                    -8.5896340226951394e-08                   2.3366779852520721e-21                      300                                       181818181818.18182                   1.7293911695881615e-21          6.2504820817216699e-20             16.759636738216528                     16.759636738216528                       16.759636738216528               33                            3                           6                     0.0054480359081201758 -0.0031868835143584601  0.99625759378478818        1e-14                            2.7000000000000001e-13       
                        6.654217578866587e-20                            63                                            264806.33798989805                    -9.3805762809538911e-08                   2.307963801861019e-21                      300                                       181818181818.18182                   1.7978419366726284e-21          6.4744333851993246e-20             17.265282823543284                     17.265282823543284                       17.265282823543284               34                            4                           6                     0.004720254388150262 -0.0027138444251661245  0.99610900441937267        1e-14                            2.8000000000000002e-13       
# Table End
