# ODT 1.0
# Table Start
# Title: mmArchive Data Table, Wed Jun 11 23:24:06 EDT 2014
# Columns: {Xf_ThermHeunEvolve:evolve:Total energy} {Xf_ThermHeunEvolve:evolve:Energy calc count} {Xf_ThermHeunEvolve:evolve:Max dm/dt} Xf_ThermHeunEvolve:evolve:dE/dt {Xf_ThermHeunEvolve:evolve:Delta E} Xf_ThermHeunEvolve:evolve:Temperature Oxs_UniaxialAnisotropy::Energy Oxs_UniformExchange::Energy {Oxs_UniformExchange::Max Spin Ang} {Oxs_UniformExchange::Stage Max Spin Ang} {Oxs_UniformExchange::Run Max Spin Ang} Oxs_TimeDriver::Iteration {Oxs_TimeDriver::Stage iteration} Oxs_TimeDriver::Stage Oxs_TimeDriver::mx   Oxs_TimeDriver::my   Oxs_TimeDriver::mz   {Oxs_TimeDriver::Last time step} {Oxs_TimeDriver::Simulation time}
# Units:                      J                                          {}                                      deg/ns                               J/s                                J                                    K                                 J                             J                              deg                                    deg                                      deg                              {}                            {}                          {}                   {}                   {}                   {}                          s                                 s                
                      7.0655710435064788e-25                        1                                         34.508593908095627                 4.8759756636654305e-13               0                                    300                                7.0655710435064788e-25          0                               0                                      0                                        0                                0                             0                           0                     0.0017453283658983088  0                    0.99999847691328769        0                                0                         
                      6.3743582846537014e-22                        3                                         247824.96738964744                 4.1504049092601467e-06               6.3672927136101948e-22                  300                                1.8743418446415334e-23          6.1869241001895475e-22             1.9113954992630788                     1.9113954992630788                       1.9113954992630788               1                             1                           0                     0.0019849940834288623 -3.6011078017272518e-05  0.99995959407224178        1e-14                            1e-14                     
                      3.202001798277669e-21                        5                                         279478.78642300999                 4.3008723503423805e-06               2.5645659698122988e-21                  300                                8.9919009497246195e-23          3.1120827887804227e-21             3.4984935203541405                     3.4984935203541405                       3.4984935203541405               2                             2                           0                     0.0017531105026098066  0.00046941994663322602  0.9998061265422149         1e-14                            2e-14                     
                      5.7725637056474169e-21                        7                                         234930.34753956087                 4.4462807079235256e-06               2.5705619073697482e-21                  300                                1.6103718693340367e-22          5.6115265187140132e-21             5.3277097277507179                     5.3277097277507179                       5.3277097277507179               3                             3                           0                     0.00074239095351409049  0.0010924402122926024  0.99965274137128957        1e-14                            2.9999999999999998e-14       
                      8.3518796700271883e-21                        9                                         234890.76458651928                 4.4471624333434803e-06               2.5793159643797714e-21                  300                                2.2925925707647535e-22          8.122620412950713e-21             6.3465713964549355                     6.3465713964549355                       6.3465713964549355               4                             4                           0                     0.00059146099285968946  0.0013272243657774423  0.99950554793830437        1e-14                            4e-14                     
                      8.3518796700271883e-21                        10                                        234890.76458651928                 4.4471624333434803e-06               0                                    300                                2.2925925707647535e-22          8.122620412950713e-21             6.3465713964549355                     6.3465713964549355                       6.3465713964549355               5                             0                           1                     0.00059146099285968946  0.0013272243657774423  0.99950554793830437        0                                4e-14                     
                      1.0965943270159789e-20                        12                                        249906.84434054847                 4.3180568284885363e-06               2.6140636001326003e-21                  300                                2.9507697384677701e-22          1.0670866296313013e-20             6.8717080265360151                     6.8717080265360151                       6.8717080265360151               6                             1                           1                     0.0017087320043477402  0.0019890592217725891  0.99936347734739028        1e-14                            5.0000000000000002e-14       
                      1.4069192011883821e-20                        14                                        265340.75004187337                 4.5301458808370376e-06               3.1032487417240334e-21                  300                                3.6957685156209997e-22          1.3699615160321722e-20             7.4848945071620987                     7.4848945071620987                       7.4848945071620987               7                             2                           1                     0.0020483323831721636  0.0027111730614217027  0.99920266253808343        1e-14                            5.9999999999999997e-14       
                      1.7298523418248953e-20                        16                                        218362.53123607519                 4.1322379261963369e-06               3.2293314063651308e-21                  300                                4.4493691056157249e-22          1.685358650768738e-20             7.970294062913629                      7.970294062913629                        7.970294062913629                8                             3                           1                     0.0017479051517062818  0.002606206103283667  0.99903993108944289        1e-14                            7.0000000000000005e-14       
                      2.0274690186380715e-20                        18                                        270023.79736112949                 5.2805751174031277e-06               2.9761667681317624e-21                  300                                5.1746623184378861e-22          1.9757223954536926e-20             9.459038155752566                      9.459038155752566                        9.459038155752566                9                             4                           1                     0.0018002684354063128  0.0022798899579420831  0.99888326903735181        1e-14                            8e-14                     
                      2.0274690186380715e-20                        19                                        270023.79736112949                 5.2805751174031277e-06               0                                    300                                5.1746623184378861e-22          1.9757223954536926e-20             9.459038155752566                      9.459038155752566                        9.459038155752566                10                            0                           2                     0.0018002684354063128  0.0022798899579420831  0.99888326903735181        0                                8e-14                     
                      2.3348283674811831e-20                        21                                        260088.81578002384                 4.8908801709442502e-06               3.0735934884311146e-21                  300                                5.9944681567336436e-22          2.2748836859138466e-20             11.285609826624986                     11.285609826624986                       11.285609826624986               11                            1                           2                     0.0022762393614238923  0.0021179517580704366  0.99870618653444476        1e-14                            8.9999999999999995e-14       
                      2.5569246466512021e-20                        23                                        218011.1548475507                  4.4695296876352958e-06               2.220962791700191e-21                  300                                6.6429858671993362e-22          2.4904947879792089e-20             11.73325046443609                      11.73325046443609                        11.73325046443609                12                            2                           2                     0.0032234675836364263  0.0024500323171747426  0.99856598770974414        1e-14                            1e-13                     
                      2.8003467382047218e-20                        25                                        271354.27808523999                 5.5104032765383693e-06               2.434220915535199e-21                  300                                7.2709218978742774e-22          2.727637519225979e-20             11.554848328886703                     11.73325046443609                        11.73325046443609                13                            3                           2                     0.0032607027524428202  0.0026416564355989376  0.99843023262916752        1e-14                            1.1e-13                   
                      3.0994707622895603e-20                        27                                        280764.82359672192                 4.958394363601317e-06               2.9912402408483855e-21                  300                                8.0518946836696035e-22          3.0189518154528643e-20             12.135974435820456                     12.135974435820456                       12.135974435820456               14                            4                           2                     0.0027789488330360636  0.0028489890125815895  0.99826119786626688        1e-14                            1.1999999999999999e-13       
                      3.0994707622895603e-20                        28                                        280764.82359672192                 4.958394363601317e-06               0                                    300                                8.0518946836696035e-22          3.0189518154528643e-20             12.135974435820456                     12.135974435820456                       12.135974435820456               15                            0                           3                     0.0027789488330360636  0.0028489890125815895  0.99826119786626688        0                                1.1999999999999999e-13       
                      3.3826604022940833e-20                        30                                        269316.89203292178                 5.1890563396811628e-06               2.8318964000452271e-21                  300                                8.9392972001062607e-22          3.2932674302930207e-20             13.421585232400682                     13.421585232400682                       13.421585232400682               16                            1                           3                     0.0033075675488484979  0.003797679824342118  0.99806914346407016        1e-14                            1.3e-13                   
                      3.6828049228373135e-20                        32                                        260358.79634196099                 4.9280904765592341e-06               3.0014452054323017e-21                  300                                9.8175240497087105e-22          3.5846296823402261e-20             13.00701950821203                      13.421585232400682                       13.421585232400682               17                            2                           3                     0.0034280770956891565  0.0036378309737478982  0.99787913902941805        1e-14                            1.4000000000000001e-13       
                      3.9692726041545008e-20                        34                                        286696.4812848866                  5.3230535540263967e-06               2.8646768131718714e-21                  300                                1.0633805767423105e-21          3.8629345464802695e-20             13.035856187217744                     13.421585232400682                       13.421585232400682               18                            3                           3                     0.0036110091052619013  0.0026543783845036219  0.99770230508351609        1e-14                            1.4999999999999999e-13       
                      4.307170348042481e-20                        36                                        249216.34803539055                 5.3144813001316705e-06               3.3789774388798037e-21                  300                                1.1589690572107769e-21          4.1912734423214032e-20             13.334830794523549                     13.421585232400682                       13.421585232400682               19                            4                           3                     0.0043084800038526508  0.001622028988208672  0.99749522372378885        1e-14                            1.6e-13                   
                      4.307170348042481e-20                        37                                        249216.34803539055                 5.3144813001316705e-06               0                                    300                                1.1589690572107769e-21          4.1912734423214032e-20             13.334830794523549                     13.334830794523549                       13.421585232400682               20                            0                           4                     0.0043084800038526508  0.001622028988208672  0.99749522372378885        0                                1.6e-13                   
                      4.5536490126696965e-20                        39                                        284046.36224807624                 5.2550070899838604e-06               2.4647866462721588e-21                  300                                1.2374804624139982e-21          4.4299009664282971e-20             13.365782380971618                     13.365782380971618                       13.421585232400682               21                            1                           4                     0.004279404252705326  0.0010669442830921326  0.99732496092791212        1e-14                            1.7000000000000001e-13       
                      4.7665297125394985e-20                        41                                        263601.50552185235                 4.6871651638112116e-06               2.1288069986980161e-21                  300                                1.2954360061326306e-21          4.6369861119262352e-20             13.802879085777008                     13.802879085777008                       13.802879085777008               22                            2                           4                     0.0047935924626955678  0.00044298427396426788  0.99719931933179207        1e-14                            1.7999999999999999e-13       
                      4.8991274603894303e-20                        43                                        262212.57715423568                 5.4454552233371865e-06               1.3259774784993215e-21                  300                                1.3244520725519177e-21          4.7666822531342387e-20             14.272031856423739                     14.272031856423739                       14.272031856423739               23                            3                           4                     0.0051000279058176614 -0.00066916093853980091  0.99713655900102904        1e-14                            1.9e-13                   
                      4.9671809531994812e-20                        45                                        266875.96235273918                 5.3006835736811478e-06               6.8053492810050747e-22                  300                                1.3489558084753738e-21          4.8322853723519437e-20             14.235920919326773                     14.272031856423739                       14.272031856423739               24                            4                           4                     0.0041311990476609241 -0.00028111109694914138  0.99708339115401279        1e-14                            2.0000000000000001e-13       
                      4.9671809531994812e-20                        46                                        266875.96235273918                 5.3006835736811478e-06               0                                    300                                1.3489558084753738e-21          4.8322853723519437e-20             14.235920919326773                     14.235920919326773                       14.272031856423739               25                            0                           5                     0.0041311990476609241 -0.00028111109694914138  0.99708339115401279        0                                2.0000000000000001e-13       
                      5.0992802948642113e-20                        48                                        376582.7323984729                  5.6852555235255095e-06               1.320993416647302e-21                  300                                1.3956940031581355e-21          4.9597108945483979e-20             14.742404020831808                     14.742404020831808                       14.742404020831808               26                            1                           5                     0.0043261181053492375  0.00041023929706828801  0.99698193870599183        1e-14                            2.0999999999999999e-13       
                      5.403193650246245e-20                        50                                        342445.14274082554                 6.1795911853777832e-06               3.0391335538203383e-21                  300                                1.4726631680085959e-21          5.2559273334453856e-20             14.120954005073514                     14.742404020831808                       14.742404020831808               27                            2                           5                     0.0056365627784414948 -0.00037121804971966326  0.99681512207336176        1e-14                            2.2e-13                   
                      5.5912206262732567e-20                        52                                        283019.61649094644                 5.726610067649386e-06               1.8802697602701103e-21                  300                                1.5043769499373165e-21          5.4407829312795248e-20             13.910970742994662                     14.742404020831808                       14.742404020831808               28                            3                           5                     0.0059575063861135348 -0.0012465396994977048  0.99674622744132102        1e-14                            2.2999999999999998e-13       
                      5.7371014119303574e-20                        54                                        281008.52014855499                 5.8774352195488085e-06               1.4588078565710082e-21                  300                                1.5432200060362514e-21          5.5827794113267323e-20             14.39078338267422                      14.742404020831808                       14.742404020831808               29                            4                           5                     0.0044882095324632861 -0.002158026945019818  0.99666187213555446        1e-14                            2.3999999999999999e-13       
                      5.7371014119303574e-20                        55                                        281008.52014855499                 5.8774352195488085e-06               0                                    300                                1.5432200060362514e-21          5.5827794113267323e-20             14.39078338267422                      14.39078338267422                        14.742404020831808               30                            0                           6                     0.0044882095324632861 -0.002158026945019818  0.99666187213555446        0                                2.3999999999999999e-13       
                      5.9732361702604268e-20                        57                                        283925.53300899477                 5.8740457581853445e-06               2.361347583300692e-21                  300                                1.6176361744758306e-21          5.811472552812843e-20             15.069332391784721                     15.069332391784721                       15.069332391784721               31                            1                           6                     0.0042819494899458384 -0.0031509851166379313  0.99650049096475168        1e-14                            2.4999999999999999e-13       
                      6.1562641180652071e-20                        59                                        300459.30015906581                 6.4202294642212688e-06               1.8302794780478142e-21                  300                                1.6575149915877642e-21          5.9905126189064313e-20             14.772281577287172                     15.069332391784721                       15.069332391784721               32                            2                           6                     0.0056635683244177035 -0.0034718625075533553  0.99641377362994366        1e-14                            2.6e-13                   
                      6.3876751991342087e-20                        61                                        300785.1365623973                  6.3099636733954699e-06               2.3141108106900097e-21                  300                                1.7192937249958632e-21          6.2157458266346219e-20             16.759643887486472                     16.759643887486472                       16.759643887486472               33                            3                           6                     0.0054133023586832498 -0.0032317443423306455  0.99627952182277446        1e-14                            2.7000000000000001e-13       
                      6.6161152896882962e-20                        63                                        264621.23061177827                 6.8845912726396943e-06               2.284400905540879e-21                  300                                1.7870326131985211e-21          6.4374120283684446e-20             17.265295128070029                     17.265295128070029                       17.265295128070029               34                            4                           6                     0.0046842745637496611 -0.0027609566489689335  0.9961324894627811         1e-14                            2.8000000000000002e-13       
# Table End
