# ODT 1.0
# Table Start
# Title: mmArchive Data Table, Wed Jun 11 23:24:08 EDT 2014
# Columns: {Xf_ThermSpinXferEvolve:evolve:Total energy} {Xf_ThermSpinXferEvolve:evolve:Energy calc count} {Xf_ThermSpinXferEvolve:evolve:Max dm/dt} Xf_ThermSpinXferEvolve:evolve:dE/dt {Xf_ThermSpinXferEvolve:evolve:Delta E} Xf_ThermSpinXferEvolve:evolve:Temperature {Xf_ThermSpinXferEvolve:evolve:average J} Oxs_UniaxialAnisotropy::Energy Oxs_UniformExchange::Energy {Oxs_UniformExchange::Max Spin Ang} {Oxs_UniformExchange::Stage Max Spin Ang} {Oxs_UniformExchange::Run Max Spin Ang} Oxs_TimeDriver::Iteration {Oxs_TimeDriver::Stage iteration} Oxs_TimeDriver::Stage Oxs_TimeDriver::mx   Oxs_TimeDriver::my   Oxs_TimeDriver::mz   {Oxs_TimeDriver::Last time step} {Oxs_TimeDriver::Simulation time}
# Units:                        J                                              {}                                          deg/ns                                   J/s                                    J                                        K                                       A/m^2                                 J                             J                              deg                                    deg                                      deg                              {}                            {}                          {}                   {}                   {}                   {}                          s                                 s                
                        7.0655710435064788e-25                            1                                             35.036508061489876                     2.4306313417071717e-14                   0                                        270                                       181818181818.18182                   7.0655710435064788e-25          0                               0                                      0                                        0                                0                             0                           0                     0.0017453283658983088  0                    0.99999847691328769        0                                0                         
                        5.7378102216233194e-22                            3                                             235099.60490323137                    -5.2272202832122194e-08                   5.7307446505798127e-22                      270.00030000000004                        181818181818.18182                   1.6949695459150956e-23          5.5683132670318101e-22             1.8133356103525866                     1.8133356103525866                       1.8133356103525866               1                             1                           0                     0.0019730848931949914 -3.3845652175988505e-05  0.99996346102391431        1e-14                            1e-14                     
                        2.8827930380128125e-21                            5                                             265149.42306217324                    -5.4061221926452395e-08                   2.3090120158504804e-21                      270.00059999999996                        181818181818.18182                   8.1023446392367907e-23          2.8017695916204444e-21             3.3189875168600818                     3.3189875168600818                       3.3189875168600818               2                             2                           0                     0.0017537774767244726  0.00044598948906395751  0.99982530970000705        1e-14                            2e-14                     
                        5.1981479680214854e-21                            7                                             222858.42405528994                    -5.5794679293982674e-08                   2.3153549300086733e-21                      270.0009                                  181818181818.18182                   1.4504166460167251e-22          5.053106303419813e-21             5.0575516105548699                     5.0575516105548699                       5.0575516105548699               3                             3                           0                     0.00079527238410781714  0.001037618428985412  0.99968724460818592        1e-14                            2.9999999999999998e-14       
                        7.5222928547210706e-21                            9                                             222830.11667579453                    -5.5633145403725048e-08                   2.3241448866995841e-21                      270.00119999999998                        181818181818.18182                   2.0650517689240017e-22          7.3157876778286694e-21             6.0290680124893195                     6.0290680124893195                       6.0290680124893195               4                             4                           0                     0.00065225008221670073  0.0012605610078231697  0.99955464503335634        1e-14                            4e-14                     
                        7.5222928547210706e-21                            10                                            222830.11667579453                    -5.5633145403725048e-08                   0                                        270.00119999999998                        181818181818.18182                   2.0650517689240017e-22          7.3157876778286694e-21             6.0290680124893195                     6.0290680124893195                       6.0290680124893195               5                             0                           1                     0.00065225008221670073  0.0012605610078231697  0.99955464503335634        0                                4e-14                     
                        9.8791572956130815e-21                            12                                            237218.38065352975                    -5.4144093498749243e-08                   2.3568644408920117e-21                      270.00150000000002                        181818181818.18182                   2.6587973185162835e-22          9.6132775637614538e-21             6.5299711255624588                     6.5299711255624588                       6.5299711255624588               6                             1                           1                     0.0017139226210538849  0.0018895256961988128  0.99942649929983196        1e-14                            5.0000000000000002e-14       
                        1.2677018654304122e-20                            14                                            251927.07984577341                    -5.6401518137124413e-08                   2.797861358691041e-21                      270.0018                                  181818181818.18182                   3.330711140677438e-22          1.2343947540236379e-20             7.1165690622243147                     7.1165690622243147                       7.1165690622243147               7                             2                           1                     0.0020378559736863771  0.0025763389738810961  0.99928147996386307        1e-14                            5.9999999999999997e-14       
                        1.5589649751419562e-20                            16                                            207162.68788753013                    -5.1335529253883286e-08                   2.9126310971154381e-21                      270.00209999999998                        181818181818.18182                   4.0105463674687044e-22          1.518859511467269e-20             7.5608985056390061                     7.5608985056390061                       7.5608985056390061               8                             3                           1                     0.0017546448983721606  0.0024772190679272052  0.99913470242237501        1e-14                            7.0000000000000005e-14       
                        1.8276090013110206e-20                            18                                            256240.39883572474                    -6.5803381371993355e-08                   2.6864402616906443e-21                      270.00240000000002                        181818181818.18182                   4.6655510361185667e-22          1.7809534909498349e-20             8.9921705668288023                     8.9921705668288023                       8.9921705668288023               9                             4                           1                     0.0018063768854409599  0.0021670662990086634  0.99899325061277389        1e-14                            8e-14                     
                        1.8276090013110206e-20                            19                                            256240.39883572474                    -6.5803381371993355e-08                   0                                        270.00240000000002                        181818181818.18182                   4.6655510361185667e-22          1.7809534909498349e-20             8.9921705668288023                     8.9921705668288023                       8.9921705668288023               10                            0                           2                     0.0018063768854409599  0.0021670662990086634  0.99899325061277389        0                                8e-14                     
                        2.1050703998380179e-20                            21                                            246856.55437555295                    -6.0688467723514018e-08                   2.774613985269975e-21                      270.0027                                  181818181818.18182                   5.4061069267454863e-22          2.0510093305705631e-20             10.729661030358825                     10.729661030358825                       10.729661030358825               11                            1                           2                     0.0022597657170242199  0.0020122738839021366  0.99883331841535383        1e-14                            8.9999999999999995e-14       
                        2.3059238540481219e-20                            23                                            206915.57542546425                    -5.5308623622883834e-08                   2.0085345421010388e-21                      270.00299999999999                        181818181818.18182                   5.9930437561512255e-22          2.2459934164866097e-20             11.160999041986255                     11.160999041986255                       11.160999041986255               12                            2                           2                     0.0031609867078281574  0.002326923661183903  0.9987064677929367         1e-14                            1e-13                     
                        2.5260515698197226e-20                            25                                            257488.29460696719                    -6.8462005946260686e-08                   2.2012771577160084e-21                      270.00330000000002                        181818181818.18182                   6.5611888060017828e-22          2.4604396817597049e-20             11.00041325438707                      11.160999041986255                       11.160999041986255               13                            3                           2                     0.0031986707892508841  0.0025096018433501655  0.99858367405252757        1e-14                            1.1e-13                   
                        2.7963925678501978e-20                            27                                            265806.23987001687                    -6.1578251680535805e-08                   2.7034099803047498e-21                      270.00360000000001                        181818181818.18182                   7.2674829811091153e-22          2.7237177380391068e-20             11.522331010319816                     11.522331010319816                       11.522331010319816               14                            4                           2                     0.0027436125567724895  0.0027067272902863981  0.99843086416316773        1e-14                            1.1999999999999999e-13       
                        2.7963925678501978e-20                            28                                            265806.23987001687                    -6.1578251680535805e-08                   0                                        270.00360000000001                        181818181818.18182                   7.2674829811091153e-22          2.7237177380391068e-20             11.522331010319816                     11.522331010319816                       11.522331010319816               15                            0                           3                     0.0027436125567724895  0.0027067272902863981  0.99843086416316773        0                                1.1999999999999999e-13       
                        3.0523798638622415e-20                            30                                            255191.21624071634                    -6.409346123396594e-08                   2.5598729601204349e-21                      270.00390000000004                        181818181818.18182                   8.070174997124189e-22          2.9716781138909993e-20             12.737220599428033                     12.737220599428033                       12.737220599428033               16                            1                           3                     0.003246655478915571  0.0036094537344197658  0.99825721123834354        1e-14                            1.3e-13                   
                        3.3239075326025448e-20                            32                                            246909.99828201433                    -6.0570984052779922e-08                   2.7152766874030344e-21                      270.00419999999997                        181818181818.18182                   8.8650752181057165e-22          3.2352567804214876e-20             12.342853597620223                     12.737220599428033                       12.737220599428033               17                            2                           3                     0.0033633434485533429  0.0034623706362365411  0.99808529526099676        1e-14                            1.4000000000000001e-13       
                        3.5836289059908263e-20                            34                                            272098.80251065653                    -6.6245645857039006e-08                   2.5972137338828157e-21                      270.00450000000001                        181818181818.18182                   9.6053897432385854e-22          3.4875750085584406e-20             12.37008943605405                      12.737220599428033                       12.737220599428033               18                            3                           3                     0.0035371431800315786  0.0025337306305169773  0.99792499525922995        1e-14                            1.4999999999999999e-13       
                        3.8896492038283848e-20                            36                                            236953.74547064936                    -6.5414211893098269e-08                   3.0602029783755864e-21                      270.00479999999999                        181818181818.18182                   1.0471629686083877e-21          3.7849329069675458e-20             12.723397843424578                     12.737220599428033                       12.737220599428033               19                            4                           3                     0.0042001603263948769  0.0015568498822284612  0.99773742310422386        1e-14                            1.6e-13                   
                        3.8896492038283848e-20                            37                                            236953.74547064936                    -6.5414211893098269e-08                   0                                        270.00479999999999                        181818181818.18182                   1.0471629686083877e-21          3.7849329069675458e-20             12.723397843424578                     12.723397843424578                       12.737220599428033               20                            0                           4                     0.0042001603263948769  0.0015568498822284612  0.99773742310422386        0                                1.6e-13                   
                        4.1133238622350559e-20                            39                                            269767.35651328496                    -6.4403391342648054e-08                   2.2367465840667109e-21                      270.00510000000003                        181818181818.18182                   1.1183935980862152e-21          4.0014845024264341e-20             12.762359964692422                     12.762359964692422                       12.762359964692422               21                            1                           4                     0.0041763396652257168  0.0010308420318944605  0.99758303704865103        1e-14                            1.7000000000000001e-13       
                        4.3070272495232401e-20                            41                                            250526.29310637907                    -5.7271375840199523e-08                   1.9370338728818432e-21                      270.00540000000001                        181818181818.18182                   1.1711599736521252e-21          4.1899112521580277e-20             13.189322515062413                     13.189322515062413                       13.189322515062413               22                            2                           4                     0.0046667722309113495  0.00044153438148384711  0.99746870242686214        1e-14                            1.7999999999999999e-13       
                        4.4281913563543704e-20                            43                                            248630.52050514193                    -6.6824522924874803e-08                   1.2116410683113016e-21                      270.00569999999999                        181818181818.18182                   1.1977407392530896e-21          4.3084172824290615e-20             13.646734373063079                     13.646734373063079                       13.646734373063079               23                            3                           4                     0.0049594255549683247 -0.00061164164430177481  0.99741122602903576        1e-14                            1.9e-13                   
                        4.491082514612494e-20                            45                                            254656.96490553129                    -6.4599872711194282e-08                   6.2891158258123633e-22                      270.00600000000003                        181818181818.18182                   1.2201771319466606e-21          4.3690648014178279e-20             13.571105574206584                     13.646734373063079                       13.646734373063079               24                            4                           4                     0.0040440783011486412 -0.00024344650237125031  0.99736257576440335        1e-14                            2.0000000000000001e-13       
                        4.491082514612494e-20                            46                                            254656.96490553129                    -6.4599872711194282e-08                   0                                        270.00600000000003                        181818181818.18182                   1.2201771319466606e-21          4.3690648014178279e-20             13.571105574206584                     13.571105574206584                       13.646734373063079               25                            0                           5                     0.0040440783011486412 -0.00024344650237125031  0.99736257576440335        0                                2.0000000000000001e-13       
                        4.6120200761269186e-20                            48                                            357801.30238456721                    -7.0015167895099373e-08                   1.2093756151442429e-21                      270.00630000000001                        181818181818.18182                   1.2628718594247562e-21          4.4857328901844426e-20             14.063091715911476                     14.063091715911476                       14.063091715911476               26                            1                           5                     0.0042303875029487941  0.00041577818920740631  0.99726996082308739        1e-14                            2.0999999999999999e-13       
                        4.8880954918820838e-20                            50                                            324856.38712953019                    -7.602815903238132e-08                   2.7607541575516567e-21                      270.00659999999999                        181818181818.18182                   1.3329058982199811e-21          4.7548049020600862e-20             13.487592304890681                     14.063091715911476                       14.063091715911476               27                            2                           5                     0.005473920203279828 -0.00032002897751168583  0.99711825185153868        1e-14                            2.2e-13                   
                        5.0592758683194304e-20                            52                                            268147.21857403207                    -7.0109841455210107e-08                   1.7118037643734637e-21                      270.00690000000003                        181818181818.18182                   1.3619345043896773e-21          4.9230824178804625e-20             13.303107078643631                     14.063091715911476                       14.063091715911476               28                            3                           5                     0.0057806208964394281 -0.0011458243309804817  0.99705523547215347        1e-14                            2.2999999999999998e-13       
                        5.192078234862047e-20                            54                                            266832.19602984493                    -7.2654215064210149e-08                   1.3280236654261688e-21                      270.00720000000001                        181818181818.18182                   1.3972751201754499e-21          5.0523507228445023e-20             13.801730938389124                     14.063091715911476                       14.063091715911476               29                            4                           5                     0.0043901394717272202 -0.0020084532846209174  0.99697854148514553        1e-14                            2.3999999999999999e-13       
                        5.192078234862047e-20                            55                                            266832.19602984493                    -7.2654215064210149e-08                   0                                        270.00720000000001                        181818181818.18182                   1.3972751201754499e-21          5.0523507228445023e-20             13.801730938389124                     13.801730938389124                       14.063091715911476               30                            0                           6                     0.0043901394717272202 -0.0020084532846209174  0.99697854148514553        0                                2.3999999999999999e-13       
                        5.4061541811085047e-20                            57                                            270102.32837554323                    -7.2159176978028413e-08                   2.1407594624645743e-21                      270.00750000000005                        181818181818.18182                   1.4647650578526167e-21          5.2596776753232432e-20             14.315037309586277                     14.315037309586277                       14.315037309586277               31                            1                           6                     0.0041974767405591196 -0.0029502097680856707  0.99683227144217068        1e-14                            2.4999999999999999e-13       
                        5.5732416513630185e-20                            59                                            285237.20074897836                    -7.918981645065184e-08                   1.6708747025451423e-21                      270.00779999999997                        181818181818.18182                   1.5013995348570963e-21          5.4231016978773095e-20             14.070917770862442                     14.315037309586277                       14.315037309586277               32                            2                           6                     0.0055119846677787517 -0.0032528067132563659  0.99675268383759819        1e-14                            2.6e-13                   
                        5.7838431396972124e-20                            61                                            285472.91416674672                    -7.7320732333127856e-08                   2.1060148833419386e-21                      270.00810000000001                        181818181818.18182                   1.5576622044109109e-21          5.6280769192561217e-20             15.895173146550739                     15.895173146550739                       15.895173146550739               33                            3                           6                     0.0052808114035968867 -0.003020729132991248  0.99663051520996448        1e-14                            2.7000000000000001e-13       
                        5.9915187480388884e-20                            63                                            250999.71764667862                    -8.4477730536080797e-08                   2.0767560834167544e-21                      270.00839999999999                        181818181818.18182                   1.619247414217317e-21          5.8295940066171561e-20             16.37357908597189                      16.37357908597189                        16.37357908597189                34                            4                           6                     0.0045932279916626384 -0.002569781420694194  0.99649692369980458        1e-14                            2.8000000000000002e-13       
# Table End
