# ODT 1.0
# Table Start
# Title: mmArchive Data Table, Wed Jun 11 23:24:06 EDT 2014
# Columns: {Xf_ThermHeunEvolve:evolve:Total energy} {Xf_ThermHeunEvolve:evolve:Energy calc count} {Xf_ThermHeunEvolve:evolve:Max dm/dt} Xf_ThermHeunEvolve:evolve:dE/dt {Xf_ThermHeunEvolve:evolve:Delta E} Xf_ThermHeunEvolve:evolve:Temperature Oxs_UniaxialAnisotropy::Energy Oxs_UniformExchange::Energy {Oxs_UniformExchange::Max Spin Ang} {Oxs_UniformExchange::Stage Max Spin Ang} {Oxs_UniformExchange::Run Max Spin Ang} Oxs_TimeDriver::Iteration {Oxs_TimeDriver::Stage iteration} Oxs_TimeDriver::Stage Oxs_TimeDriver::mx   Oxs_TimeDriver::my   Oxs_TimeDriver::mz   {Oxs_TimeDriver::Last time step} {Oxs_TimeDriver::Simulation time}
# Units:                      J                                          {}                                      deg/ns                               J/s                                J                                    K                                 J                             J                              deg                                    deg                                      deg                              {}                            {}                          {}                   {}                   {}                   {}                          s                                 s                
                      7.0655710435064788e-25                        1                                         34.508593908095627                 4.8759756636654305e-13               0                                    270                                7.0655710435064788e-25          0                               0                                      0                                        0                                0                             0                           0                     0.0017453283658983088  0                    0.99999847691328769        0                                0                         
                      5.7378084230073793e-22                        3                                         235099.60490323137                 3.7353462116827578e-06               5.7307428519638726e-22                  270.00030000000004                 1.6949456407856097e-23          5.5683138589288182e-22             1.8133356103525866                     1.8133356103525866                       1.8133356103525866               1                             1                           0                     0.0019727003029828311 -3.3852253128789556e-05  0.99996346153925197        1e-14                            1e-14                     
                      2.8819791167345481e-21                        5                                         265149.36092173395                 3.8708720940521419e-06               2.3081982744338104e-21                  270.00059999999996                 8.1002333500611311e-23          2.8009767832339368e-21             3.3189875168600818                     3.3189875168600818                       3.3189875168600818               2                             2                           0                     0.0017532023871655415  0.00044552510159202375  0.99982535522452087        1e-14                            2e-14                     
                      5.1955074420931601e-21                        7                                         222858.42405528994                 4.0020201739817487e-06               2.3135283253586116e-21                  270.0009                           1.4497435160419885e-22          5.0505330904889612e-21             5.054796762195469                      5.054796762195469                        5.054796762195469                3                             3                           0                     0.00079447769758194038  0.0010362613012604824  0.99968738978432703        1e-14                            2.9999999999999998e-14       
                      7.5169448161115751e-21                        9                                         222830.11667579453                 4.0020582927389398e-06               2.3214373740184147e-21                  270.00119999999998                 2.0637114004074879e-22          7.3105736760708254e-21             6.0222838363977029                     6.0222838363977029                       6.0222838363977029               4                             4                           0                     0.00065116667632244358  0.0012584421385708757  0.99955493419475561        1e-14                            4e-14                     
                      7.5169448161115751e-21                        10                                        222830.11667579453                 4.0020582927389398e-06               0                                    270.00119999999998                 2.0637114004074879e-22          7.3105736760708254e-21             6.0222838363977029                     6.0222838363977029                       6.0222838363977029               5                             0                           1                     0.00065116667632244358  0.0012584421385708757  0.99955493419475561        0                                4e-14                     
                      9.8700716292917951e-21                        12                                        237221.64889222977                 3.8863111773265513e-06               2.3531268131802208e-21                  270.00150000000002                 2.6565765375339247e-22          9.6044139755384034e-21             6.5208548605952483                     6.5208548605952483                       6.5208548605952483               6                             1                           1                     0.001712384169423094  0.0018867222988562813  0.99942697858132656        1e-14                            5.0000000000000002e-14       
                      1.2662859309776844e-20                        14                                        251927.1267127872                  4.0769409132824596e-06               2.7927876804850485e-21                  270.0018                           3.3272104603639802e-22          1.2330138263740446e-20             7.1033297362105072                     7.1033297362105072                       7.1033297362105072               7                             2                           1                     0.0020358650017107795  0.0025728998840713162  0.99928223568962349        1e-14                            5.9999999999999997e-14       
                      1.5569180177399944e-20                        16                                        207005.18074793037                 3.7183035981391059e-06               2.9063208676231011e-21                  270.00209999999998                 4.0054219278846625e-22          1.5168637984611478e-20             7.5608985056390088                     7.5608985056390088                       7.5608985056390088               8                             3                           1                     0.0017518694085887851  0.002473359653252117  0.99913580896647158        1e-14                            7.0000000000000005e-14       
                      1.8247946726081707e-20                        18                                        256240.32313710568                 4.7531313258105092e-06               2.6787665486817603e-21                  270.00240000000002                 4.6584778935515173e-22          1.7782098936726553e-20             8.9729647687291703                     8.9729647687291703                       8.9729647687291703               9                             4                           1                     0.0018026353911964664  0.0021627644423748596  0.998994778410627          1e-14                            8e-14                     
                      1.8247946726081707e-20                        19                                        256240.32313710568                 4.7531313258105092e-06               0                                    270.00240000000002                 4.6584778935515173e-22          1.7782098936726553e-20             8.9729647687291703                     8.9729647687291703                       8.9729647687291703               10                            0                           2                     0.0018026353911964664  0.0021627644423748596  0.998994778410627          0                                8e-14                     
                      2.101381238318522e-20                        21                                        246856.55393063452                 4.4008899378325604e-06               2.765865657103513e-21                  270.0027                           5.3967778678763041e-22          2.0474134596397587e-20             10.704132782127077                     10.704132782127077                       10.704132782127077               11                            1                           2                     0.002255021955798308  0.0020069582668156044  0.99883533437955252        1e-14                            8.9999999999999995e-14       
                      2.3012652332611749e-20                        23                                        206807.60538358547                 4.0229709171131455e-06               1.9988399494265288e-21                  270.00299999999999                 5.9810027513135612e-22          2.2414552057480392e-20             11.128766371452338                     11.128766371452338                       11.128766371452338               12                            2                           2                     0.0031550995993112102  0.0023204965400238213  0.99870907078742632        1e-14                            1e-13                     
                      2.5203642915940834e-20                        25                                        257488.29460696707                 4.9596802672317277e-06               2.1909905833290866e-21                  270.00330000000002                 6.5462373284308296e-22          2.4549019183097751e-20             10.961345592861806                     11.128766371452338                       11.128766371452338               13                            3                           2                     0.0031915796416127074  0.0025020477892858614  0.99858690710866715        1e-14                            1.1e-13                   
                      2.7896011934476521e-20                        27                                        265806.23987001687                 4.4610714635714794e-06               2.6923690185356894e-21                  270.00360000000001                 7.249172340837583e-22          2.7171094700392765e-20             11.522331010319816                     11.522331010319816                       11.522331010319816               14                            4                           2                     0.0027352099589468878  0.0026982821890428883  0.9984348249664351         1e-14                            1.1999999999999999e-13       
                      2.7896011934476521e-20                        28                                        265806.23987001687                 4.4610714635714794e-06               0                                    270.00360000000001                 7.249172340837583e-22          2.7171094700392765e-20             11.522331010319816                     11.522331010319816                       11.522331010319816               15                            0                           3                     0.0027352099589468878  0.0026982821890428883  0.9984348249664351         0                                1.1999999999999999e-13       
                      3.0445162501896097e-20                        30                                        255191.21624071637                 4.6688656418811714e-06               2.5491505674195733e-21                  270.00390000000004                 8.0481943880993668e-22          2.9640343063086161e-20             12.737220599428031                     12.737220599428031                       12.737220599428031               16                            1                           3                     0.0032369133837165868  0.0035994770132838465  0.99826196697851166        1e-14                            1.3e-13                   
                      3.3146716548466008e-20                        32                                        246914.03812154019                 4.4344413244579075e-06               2.7015540465699083e-21                  270.00419999999997                 8.8386372076432105e-22          3.2262852827701685e-20             12.342853597620216                     12.737220599428031                       12.737220599428031               17                            2                           3                     0.0033516749645246357  0.0034501051668603812  0.99809101707570869        1e-14                            1.4000000000000001e-13       
                      3.5726556629775955e-20                        34                                        272098.80251078197                 4.7929496285595503e-06               2.5798400813099532e-21                  270.00450000000001                 9.5739964669375818e-22          3.4769156983082199e-20             12.370089436054027                     12.737220599428031                       12.737220599428031               18                            3                           3                     0.0035237527503541575  0.0025189713960652952  0.99793179247971608        1e-14                            1.4999999999999999e-13       
                      3.8767989798075799e-20                        36                                        236670.78652436283                 4.7847680044867491e-06               3.041433168299843e-21                  270.00479999999999                 1.0435219674345868e-21          3.7724467830641212e-20             12.654204009178535                     12.737220599428031                       12.737220599428031               19                            4                           3                     0.0041844232878563113  0.0015395989301271111  0.997745310417262          1e-14                            1.6e-13                   
                      3.8767989798075799e-20                        37                                        236670.78652436283                 4.7847680044867491e-06               0                                    270.00479999999999                 1.0435219674345868e-21          3.7724467830641212e-20             12.654204009178535                     12.654204009178535                       12.737220599428031               20                            0                           4                     0.0041844232878563113  0.0015395989301271111  0.997745310417262          0                                1.6e-13                   
                      4.098536153798247e-20                        39                                        268518.75093660993                 4.7286486132702713e-06               2.2173717399066687e-21                  270.00510000000003                 1.1142081805180454e-21          3.9871153357464424e-20             12.683247099736088                     12.683247099736088                       12.737220599428031               21                            1                           4                     0.0041580615819679905  0.0010113046435684231  0.99759210918306951        1e-14                            1.7000000000000001e-13       
                      4.2902424272201867e-20                        41                                        250526.29310643888                 4.2199886827490436e-06               1.9170627342193959e-21                  270.00540000000001                 1.1664257730938026e-21          4.1735998499108066e-20             13.100921757055206                     13.100921757055206                       13.100921757055206               22                            2                           4                     0.0046462089013642356  0.00041940477862345771  0.99747897004703778        1e-14                            1.7999999999999999e-13       
                      4.4097868897285073e-20                        43                                        248630.5293912249                  4.9013376026467484e-06               1.1954446250832086e-21                  270.00569999999999                 1.1925768016065828e-21          4.290529209567849e-20             13.548055987278241                     13.548055987278241                       13.548055987278241               23                            3                           4                     0.0049367370726765376 -0.00063619678161009252  0.99742242475516052        1e-14                            1.9e-13                   
                      4.471165586085569e-20                        45                                        254028.7674360449                  4.7712766078946285e-06               6.1378696357061557e-22                  270.00600000000003                 1.2145764866653985e-21          4.3497079374190289e-20             13.514855638637302                     13.548055987278241                       13.548055987278241               24                            4                           4                     0.0040196619855119393 -0.00027017301738116152  0.99737472042811326        1e-14                            2.0000000000000001e-13       
                      4.471165586085569e-20                        46                                        254028.7674360449                  4.7712766078946285e-06               0                                    270.00600000000003                 1.2145764866653985e-21          4.3497079374190289e-20             13.514855638637302                     13.514855638637302                       13.548055987278241               25                            0                           5                     0.0040196619855119393 -0.00027017301738116152  0.99737472042811326        0                                2.0000000000000001e-13       
                      4.5902729239957883e-20                        48                                        357801.55647953309                 5.120586766414345e-06               1.191073379102192e-21                  270.00630000000001                 1.2567168465030345e-21          4.4646012393454849e-20             13.998111012709735                     13.998111012709735                       13.998111012709735               26                            1                           5                     0.0042049702866851276  0.00038658793709739559  0.99728331048930385        1e-14                            2.0999999999999999e-13       
                      4.8644670167579293e-20                        50                                        324856.38711953256                 5.5633818351075539e-06               2.7419409276214097e-21                  270.00659999999999                 1.3261755234099714e-21          4.7318494644169322e-20             13.414602395536615                     13.998111012709735                       13.998111012709735               27                            2                           5                     0.0054467765608563036 -0.00035155085614119229  0.99713285310927469        1e-14                            2.2e-13                   
                      5.0340246920000373e-20                        52                                        268147.22022643348                 5.1545776011940638e-06               1.6955767524210799e-21                  270.00690000000003                 1.3547650561308921e-21          4.8985481863869481e-20             13.223033723523036                     13.998111012709735                       13.998111012709735               28                            3                           5                     0.0057515870820278956 -0.0011796485184483337  0.99707079454257364        1e-14                            2.2999999999999998e-13       
                      5.1653342681014581e-20                        54                                        266652.25211588206                 5.2933584498530947e-06               1.3130957610142113e-21                  270.00720000000001                 1.3897147347903338e-21          5.0263627946224248e-20             13.658862882117594                     13.998111012709735                       13.998111012709735               29                            4                           5                     0.0043596764943590778 -0.0020445158702214633  0.99699495055585863        1e-14                            2.3999999999999999e-13       
                      5.1653342681014581e-20                        55                                        266652.25211588206                 5.2933584498530947e-06               0                                    270.00720000000001                 1.3897147347903338e-21          5.0263627946224248e-20             13.658862882117594                     13.658862882117594                       13.998111012709735               30                            0                           6                     0.0043596764943590778 -0.0020445158702214633  0.99699495055585863        0                                2.3999999999999999e-13       
                      5.3778857347969059e-20                        57                                        270102.32837554405                 5.2892802130180846e-06               2.1255146669544759e-21                  270.00750000000005                 1.4567627810155819e-21          5.2322094566953478e-20             14.315037304993108                     14.315037304993108                       14.315037304993108               31                            1                           6                     0.0041664495600102717 -0.0029885873032499143  0.99684963535554094        1e-14                            2.4999999999999999e-13       
                      5.5430587362515539e-20                        59                                        285237.20074390556                 5.7788729115007315e-06               1.6517300145464754e-21                  270.00779999999997                 1.4928679451938319e-21          5.39377194173217e-20             14.032428243633873                     14.315037304993108                       14.315037304993108               32                            2                           6                     0.0054798305696143416 -0.0032934682070405816  0.99677119370485234        1e-14                            2.6e-13                   
                      5.7516218011059738e-20                        61                                        285472.91370244394                 5.6801843855334222e-06               2.0856306485442089e-21                  270.00810000000001                 1.5485522506038368e-21          5.5967665760455906e-20             15.895180168977719                     15.895180168977719                       15.895180168977719               33                            3                           6                     0.0052471766374197256 -0.0030633613685916408  0.99665028417657386        1e-14                            2.7000000000000001e-13       
                      5.9571730026496377e-20                        63                                        250823.69163672591                 6.2003229927961391e-06               2.0555120154366328e-21                  270.00839999999999                 1.6094943856396999e-21          5.796223564085668e-20             16.37359113182098                      16.37359113182098                        16.37359113182098                34                            4                           6                     0.0045583727144618722 -0.0026145800244904232  0.9965180971343427         1e-14                            2.8000000000000002e-13       
# Table End
