# ODT 1.0
# Table Start
# Title: mmArchive Data Table, Wed Jun 11 15:35:23 EDT 2014
# Columns: {Oxs_RungeKuttaEvolve:evolve:Total energy} {Oxs_RungeKuttaEvolve:evolve:Energy calc count} {Oxs_RungeKuttaEvolve:evolve:Max dm/dt} Oxs_RungeKuttaEvolve:evolve:dE/dt {Oxs_RungeKuttaEvolve:evolve:Delta E} Oxs_CubicAnisotropy::Energy Oxs_UniformExchange::Energy {Oxs_UniformExchange::Max Spin Ang} {Oxs_UniformExchange::Stage Max Spin Ang} {Oxs_UniformExchange::Run Max Spin Ang} Oxs_ScriptUZeeman::Energy Oxs_ScriptUZeeman::B Oxs_ScriptUZeeman::Bx Oxs_ScriptUZeeman::By Oxs_ScriptUZeeman::Bz Oxs_Demag::Energy    Oxs_TimeDriver::Iteration {Oxs_TimeDriver::Stage iteration} Oxs_TimeDriver::Stage Oxs_TimeDriver::mx   Oxs_TimeDriver::my   Oxs_TimeDriver::mz   {Oxs_TimeDriver::Last time step} {Oxs_TimeDriver::Simulation time}
# Units:                       J                                            {}                                        deg/ns                                 J/s                                  J                                J                           J                              deg                                    deg                                      deg                               J                      mT                   mT                    mT                    mT                   J                       {}                            {}                          {}                   {}                   {}                   {}                          s                                 s                
                       1.2122384533099152e-18                          1                                           1959.9544813617799                  -2.7649890934576652e-08                 0                               -1.5173537668946637e-22         0                               0                                      0                                        0                                0                       0                    0                     0                     0                     1.2123901886866048e-18    0                             0                           0                     0.99975009371095458  0.019995001874219091  0.0099975009371095457        0                                0                         
                       1.2121044333527854e-18                          7                                           1962.1099328034149                  -2.7649690941936431e-08                -1.3401995712984213e-22             -1.5165305231786646e-22         9.1637974870824855e-26             0.012846755796089109                    0.012846755796089109                      0.012846755796089109             -1.3153240093068567e-22     0.0024363937419945711  0.0024363937419945711   0                     0                     1.2123875271680591e-18    1                             1                           0                     0.99975022938042524  0.019988064391454525  0.0099977696598712116        4.8470513424369849e-15              4.8470513424369849e-15       
                       1.2115683633696257e-18                          13                                          1970.5845247105922                  -2.7648870138019552e-08                -5.3606998315974344e-22             -1.5132847050900949e-22         2.2881252772690642e-24             0.064192216811068209                    0.064192216811068209                      0.064192216811068209             -6.5766235495927751e-22     0.012181968681047919  0.012181968681047919   0                     0                     1.2123750660698166e-18    2                             2                           0                     0.99975076427451659  0.019960312123980879  0.0099988425155753523        1.938820536974794e-14              2.4235256712184924e-14       
                       1.20942425212446e-18                          19                                          2002.1444084465722                  -2.7645260401267797e-08                -2.1441112451657197e-21             -1.5010518522299129e-22         4.011961737901476e-23             0.26872233726626271                    0.26872233726626271                      0.26872233726626271             -2.7621873462886352e-21     0.051164266354665866  0.051164266354665866   0                     0                     1.2122964250385925e-18    3                             3                           0                     0.99975277998291678  0.019849265909801437  0.010003101088593204        7.7552821478991758e-14              1.0178807819117669e-13       
                       1.200851162238042e-18                          25                                          2092.3761575812732                  -2.7626350623289569e-08                -8.5730898864180691e-21             -1.4636876915020212e-22         6.3054831870313498e-22             1.0617152832779935                     1.0617152832779935                       1.0617152832779935              -1.118034342496179e-20     0.20709332006066763  0.20709332006066763   0                     0                     1.2115473261134508e-18    4                             4                           0                     0.99975893330551968  0.019404502254465664  0.010019591124463026        3.1021128591596703e-13              4.1199936410714372e-13       
                       1.200851162238042e-18                          26                                          2092.3761575812732                  -2.7626350623289569e-08                 0                               -1.4636876915020212e-22         6.3054831870313498e-22             1.0617152832779935                     1.0617152832779935                       1.0617152832779935              -1.118034342496179e-20     0.20709332006066763  0.20709332006066763   0                     0                     1.2115473261134508e-18    5                             0                           1                     0.99975893330551968  0.019404502254465664  0.010019591124463026        0                                4.1199936410714372e-13       
                       1.1809842498260122e-18                          32                                          2118.1581572547279                  -2.7575096540984586e-08                -1.9866912412029809e-20             -1.4346111964883679e-22         3.9126213511427476e-21             2.5901742041374938                     2.5901742041374938                       2.5901742041374938              -3.0715192117174515e-20     0.56893429507149818  0.56893429507149818   0                     0                     1.2079302817116926e-18    6                             1                           1                     0.99976369670291898  0.018369102076029247  0.010054181207858535        7.1986555903954313e-13              1.1318649231466869e-12       
                       1.1587000121319909e-18                          38                                          1933.864025595843                   -2.7547444295169172e-08                -2.2284237694021119e-20             -1.4485671731838624e-22         8.0391608066212291e-21             3.5735206665927333                     3.5735206665927333                       3.5735206665927333              -5.266074441330272e-20     0.97543176976831902  0.97543176976831902   0                     0                     1.2034664524559909e-18    7                             2                           1                     0.9997613373289479   0.017201180613840208  0.010086091338957548        8.0872569874681437e-13              1.9405906218935013e-12       
                       1.1353595243115883e-18                          44                                          1597.7324869887632                  -2.7545623780458073e-08                -2.3340487820402637e-20             -1.4616301264878997e-22         1.0148740661430505e-20             3.842516755783099                      3.842516755783099                        3.842516755783099               -7.5655259986441518e-20     1.4013609393648645   1.4013609393648645    0                     0                     1.2010122066492481e-18    8                             3                           1                     0.99975908684684256  0.015973199195807215  0.010110785437193723        8.4741964228811835e-13              2.7880102641816195e-12       
                       1.1123372287555369e-18                          50                                          1214.2276920188592                  -2.7526691764680655e-08                -2.3022295556051408e-20             -1.4597168071817695e-22         9.6516884585972811e-21             3.5785488458331027                     3.842516755783099                        3.842516755783099               -9.8341072177771534e-20     1.8215694427057751   1.8215694427057751    0                     0                     1.2011725841554294e-18    9                             4                           1                     0.99975928644801193  0.014758670695483802  0.010125978846315952        8.360874366240686e-13              3.6240977008056882e-12       
                       1.1123372287555369e-18                          51                                          1214.2276920188592                  -2.7526691764680655e-08                 0                               -1.4597168071817695e-22         9.6516884585972811e-21             3.5785488458331027                     3.5785488458331027                       3.842516755783099               -9.8341072177771534e-20     1.8215694427057751   1.8215694427057751    0                     0                     1.2011725841554294e-18    10                            0                           2                     0.99975928644801193  0.014758670695483802  0.010125978846315952        0                                3.6240977008056882e-12       
                       1.0890926927643863e-18                          57                                          1315.2176376710988                  -2.7493082933136202e-08                -2.3244535991150598e-20             -1.4583555013460592e-22         7.4248398145903174e-21             2.9096030748678148                     3.5785488458331027                       3.842516755783099               -1.2126808049829166e-19     2.2462456734261917   2.2462456734261917    0                     0                     1.2030817689982223e-18    11                            1                           2                     0.9997593856185113   0.013529422579276543  0.010131978186516849        8.450419583059851e-13              4.4691396591116734e-12       
                       1.0648052054152232e-18                          63                                          1372.8514211168522                  -2.7478702488536723e-08                -2.4287487349163083e-20             -1.489811610232822e-22         4.7090574001869093e-21             1.910227565670888                      3.5785488458331027                       3.842516755783099               -1.452435125008529e-19     2.6903564447224229   2.6903564447224229    0                     0                     1.2054886416769125e-18    12                            2                           2                     0.99975402189475648  0.012243364823688452  0.010128130478905244        8.8380030365282716e-13              5.3529399627645007e-12       
                       1.0391510068746644e-18                          69                                          1271.7201880423725                  -2.7478343080377504e-08                -2.5654198540558921e-20             -1.6049369039620843e-22         3.4259074879706275e-21             1.7619243737599919                     3.5785488458331027                       3.842516755783099               -1.7056674080178077e-19     3.1594815193296597   3.1594815193296597    0                     0                     1.2064523338788706e-18    13                            3                           2                     0.99973471243828893  0.01088574062267874  0.010112607938666108        9.3369502121698348e-13              6.2866349839814838e-12       
                       1.0128430153949438e-18                          75                                          995.30882036113201                  -2.74579913395405e-08                -2.6307991479720524e-20             -1.8368363570517864e-22         4.8445385008398088e-21             1.8545547468046488                     3.5785488458331027                       3.842516755783099               -1.965350551523447e-19     3.6406451428452251   3.6406451428452251    0                     0                     1.2047172156821539e-18    14                            4                           2                     0.99969590981130174  0.0094957112437004613  0.010084012552929905        9.5779933041245826e-13              7.2444343143939424e-12       
                       1.0128430153949438e-18                          76                                          995.30882036113201                  -2.74579913395405e-08                 0                               -1.8368363570517864e-22         4.8445385008398088e-21             1.8545547468046488                     1.8545547468046488                       3.842516755783099               -1.965350551523447e-19     3.6406451428452251   3.6406451428452251    0                     0                     1.2047172156821539e-18    15                            0                           3                     0.99969590981130174  0.0094957112437004613  0.010084012552929905        0                                7.2444343143939424e-12       
                       9.862135160236978e-19                          82                                          1146.4563298888722                  -2.7432892684351148e-08                -2.6629499371245962e-20             -2.1655153902791025e-22         7.8352601034709203e-21             2.6316741618887458                     2.6316741618887458                       3.842516755783099               -2.2283529054807468e-19     4.1280621089713376   4.1280621089713376    0                     0                     1.2014300980073295e-18    16                            1                           3                     0.99964083525435832  0.0080917316710229295  0.010041420656351985        9.7041857951106623e-13              8.2148528939050084e-12       
                       9.6218410434044974e-19                          94                                          1217.6497660312068                  -2.7428822592031872e-08                -2.4029411683248008e-20             -2.5045237081182456e-22         9.9975493810330927e-21             3.055429305216911                      3.055429305216911                        3.842516755783099               -2.4657027892188568e-19     4.5680172709553393   4.5680172709553393    0                     0                     1.1990072862521143e-18    17                            2                           3                     0.99958384688337121  0.0068294913327686755  0.0099908837946291445        8.7609223350641536e-13              9.0909451274114235e-12       
                       9.3994437417852213e-19                          100                                         1152.7176761573619                  -2.7427380497431001e-08                -2.2239730161927719e-20             -2.8382070785400085e-22         1.0692247541921966e-20             3.1060709445869965                     3.1060709445869965                       3.842516755783099               -2.6853008637364941e-19     4.9751295473396162   4.9751295473396162    0                     0                     1.1980660337181036e-18    18                            3                           3                     0.99952761631080167  0.0056670189749183164  0.0099338538262509109        8.1084829635759454e-13              9.9017934237690178e-12       
                       9.1841339546006215e-19                          106                                         982.30732173237448                  -2.7416096868307086e-08                -2.1530978718459872e-20             -3.1836779233763722e-22         1.0219557997488322e-20             2.8579167538278853                     3.1060709445869965                       3.842516755783099               -2.8978709817957299e-19     5.3692769399875759   5.3692769399875759    0                     0                     1.1982993034344845e-18    19                            4                           3                     0.99946935202760911  0.0045478229949632368  0.0098693564241745958        7.8518278763400092e-13              1.0686976211403019e-11       
                       9.1841339546006215e-19                          107                                         982.30732173237448                  -2.7416096868307086e-08                 0                               -3.1836779233763722e-22         1.0219557997488322e-20             2.8579167538278853                     2.8579167538278853                       3.842516755783099               -2.8978709817957299e-19     5.3692769399875759   5.3692769399875759    0                     0                     1.1982993034344845e-18    20                            0                           4                     0.99946935202760911  0.0045478229949632368  0.0098693564241745958        0                                1.0686976211403019e-11       
                       8.9672585070249276e-19                          113                                         1057.0672330770703                  -2.740385620553698e-08                -2.1687544757569544e-20             -3.5676378622651545e-22         9.114473154574101e-21             2.3876154076796849                     2.8579167538278853                       3.842516755783099               -3.1119983141017753e-19     5.7663933603481716   5.7663933603481716    0                     0                     1.1991679727443226e-18    21                            1                           4                     0.99940456378807463  0.0034275875646933643  0.0097953033052732511        7.9126598713987162e-13              1.1478242198542891e-11       
                       8.7472086994691418e-19                          119                                         1161.9657437129003                  -2.7400694366581758e-08                -2.2004980755578565e-20             -4.01291520126215e-22         8.1245513134404807e-21             2.1910170537703979                     2.8579167538278853                       3.842516755783099               -3.3292115984418284e-19     6.1693443542786728   6.1693443542786728    0                     0                     1.1999187699977826e-18    22                            2                           4                     0.99932931438741313  0.0022996324613112958  0.0097109891793773634        8.0307745567935806e-13              1.2281319654222249e-11       
                       8.5234822416498054e-19                          125                                         1152.2160863652309                  -2.7399438085313599e-08                -2.2372645781933549e-20             -4.542202438519279e-22         8.058492076319086e-21             2.2339995891567694                     2.8579167538278853                       3.842516755783099               -3.5499263262750339e-19     6.5789399853661097   6.5789399853661097    0                     0                     1.1997365849600169e-18    23                            3                           4                     0.99923964284106959  0.0011632234093224454  0.009615869410294204        8.1652564332550222e-13              1.3097845297547751e-11       
                       8.2994736843486188e-19                          131                                         1035.3777674982884                  -2.7389505496993161e-08                -2.2400855730118724e-20             -5.1581704020759689e-22         9.2537066471785864e-21             2.2957132611107718                     2.8579167538278853                       3.842516755783099               -3.7708058579330744e-19     6.9890194487892758   6.9890194487892758    0                     0                     1.1982900646211984e-18    24                            4                           4                     0.99913498054392336  3.6790643132120969e-05  0.0095111170337086326        8.1771157467580847e-13              1.3915556872223561e-11       
                       8.2994736843486188e-19                          132                                         1035.3777674982884                  -2.7389505496993161e-08                 0                               -5.1581704020759689e-22         9.2537066471785864e-21             2.2957132611107718                     2.2957132611107718                       3.842516755783099               -3.7708058579330744e-19     6.9890194487892758   6.9890194487892758    0                     0                     1.1982900646211984e-18    25                            0                           5                     0.99913498054392336  3.6790643132120969e-05  0.0095111170337086326        0                                1.3915556872223561e-11       
                       8.0761491108456423e-19                          138                                         998.67664453983832                  -2.737657755010456e-08                -2.2332457350297642e-20             -5.8502891264588173e-22         1.1238488896664724e-20             2.3689873004447537                     2.3689873004447537                       3.842516755783099               -3.9909468463824389e-19     7.3979145199655045   7.3979145199655045    0                     0                     1.1960561357387893e-18    26                            1                           5                     0.99901699163591973 -0.0010740611891535323  0.0093971719066415424        8.1558437283998499e-13              1.4731141245063546e-11       
                       7.8516392964155424e-19                          144                                         1121.4374552491083                  -2.7370902761607447e-08                -2.2450981443009981e-20             -6.6084784335558986e-22         1.3168711756087016e-20             2.6761810857370953                     2.6761810857370953                       3.842516755783099               -4.2121674534408721e-19     7.8089996041383563   7.8089996041383563    0                     0                     1.1938728110729099e-18    27                            2                           5                     0.99888724476702839 -0.0021773611074739096  0.0092731253485216786        8.2020271657489105e-13              1.5551343961638437e-11       
                       7.6122795656744473e-19                          150                                         1143.5329277706724                  -2.7369020041676441e-08                -2.3935973074109531e-20             -7.4739228833716864e-22         1.4451969176444271e-20             2.8065896801696142                     2.8065896801696142                       3.842516755783099               -4.4478584181873067e-19     8.2471784077355004   8.2471784077355004    0                     0                     1.1923092214980683e-18    28                            3                           5                     0.99873853107982591 -0.0033371691119363314  0.0091306389606205848        8.7455255800948112e-13              1.6425896519647916e-11       
                       7.3908513251506437e-19                          162                                         1059.9478047682551                  -2.73619233797943e-08                -2.2142824052380304e-20             -8.3282298568619422e-22         1.4806828785090267e-20             2.691335035774812                      2.8065896801696142                       3.842516755783099               -4.6657387868246812e-19     8.6524466168351228   8.6524466168351228    0                     0                     1.1916850053981284e-18    29                            4                           5                     0.99859119567717325 -0.0043937296878842442  0.0089897320078455023        8.0914986479748957e-13              1.7235046384445405e-11       
                       7.3908513251506437e-19                          163                                         1059.9478047682551                  -2.73619233797943e-08                 0                               -8.3282298568619422e-22         1.4806828785090267e-20             2.691335035774812                      2.691335035774812                        3.842516755783099               -4.6657387868246812e-19     8.6524466168351228   8.6524466168351228    0                     0                     1.1916850053981284e-18    30                            0                           6                     0.99859119567717325 -0.0043937296878842442  0.0089897320078455023        0                                1.7235046384445405e-11       
                       7.1859607188799171e-19                          169                                         988.62687390711505                  -2.7352347023388999e-08                -2.0489060627072715e-20             -9.1728820766546481e-22         1.4672232233037897e-20             2.6263699241407452                     2.691335035774812                        3.842516755783099               -4.8672370790133899e-19     9.0274389308289322   9.0274389308289322    0                     0                     1.1915648357639582e-18    31                            1                           6                     0.99844508140530852 -0.0053564942971381594  0.0088518328463802615        7.4895603833309074e-13              1.7984002422778498e-11       
                       6.9821316848357263e-19                          175                                         1107.3314518987386                  -2.7345504166839993e-08                -2.0382903404419005e-20             -1.0074903298268267e-21         1.4513724735177155e-20             2.6621231037624469                     2.691335035774812                        3.842516755783099               -5.0675695311491575e-19     9.4004766875902561   9.4004766875902561    0                     0                     1.1914638871931381e-18    32                            2                           6                     0.99828852647814037 -0.0062991447642740585  0.0087077199989311592        7.453059379951036e-13              1.87293083607736e-11       
                       6.7731179502466805e-19                          181                                         1161.2744652969423                  -2.7340490259939588e-08                -2.0901373458904633e-20             -1.1073729214025843e-21         1.4792086520435812e-20             2.6966903597210208                     2.6966903597210208                       3.842516755783099               -5.2728286577921602e-19     9.7829438660686669   9.7829438660686669    0                     0                     1.1909099472048508e-18    33                            3                           6                     0.99811443754648121 -0.0072491184268224512  0.0085529746580852682        7.6441924471974008e-13              1.9493727605493341e-11       
                       6.5602651824633096e-19                          187                                         1130.8851080174518                  -2.7331830017656278e-08                -2.1285276778337044e-20             -1.2173960634590818e-21         1.5836258146849384e-20             2.7396399444198378                     2.7396399444198378                       3.842516755783099               -5.4816684646362774e-19     10.172379198707619   10.172379198707619    0                     0                     1.1895745026265686e-18    34                            4                           6                     0.99792169552274301 -0.0081983774722866297  0.0083882894923556859        7.7864302250007453e-13              2.0272370627993414e-11       
# Table End
