# ODT 1.0
# Table Start
# Title: mmArchive Data Table, Wed Jun 16 18:42:54 EDT 2010
# Columns: {Oxs_RungeKuttaEvolve:evolve:Total energy} {Oxs_RungeKuttaEvolve:evolve:Energy calc count} {Oxs_RungeKuttaEvolve:evolve:Max dm/dt} Oxs_RungeKuttaEvolve:evolve:dE/dt {Oxs_RungeKuttaEvolve:evolve:Delta E} Oxs_CubicAnisotropy::Energy Oxs_UniformExchange::Energy {Oxs_UniformExchange::Max Spin Ang} {Oxs_UniformExchange::Stage Max Spin Ang} {Oxs_UniformExchange::Run Max Spin Ang} Oxs_ScriptUZeeman::Energy Oxs_ScriptUZeeman::B Oxs_ScriptUZeeman::Bx Oxs_ScriptUZeeman::By Oxs_ScriptUZeeman::Bz Oxs_Demag::Energy    Oxs_TimeDriver::Iteration {Oxs_TimeDriver::Stage iteration} Oxs_TimeDriver::Stage Oxs_TimeDriver::mx   Oxs_TimeDriver::my   Oxs_TimeDriver::mz   {Oxs_TimeDriver::Last time step} {Oxs_TimeDriver::Simulation time}
# Units:                       J                                            {}                                        deg/ns                                 J/s                                  J                                J                           J                              deg                                    deg                                      deg                               J                      mT                   mT                    mT                    mT                   J                       {}                            {}                          {}                   {}                   {}                   {}                          s                                 s                
                       1.212238453309926e-18                          1                                           1959.9544813618093                  -2.7649890934576586e-08                 0                               -1.5173537668946637e-22         0                               0                                      0                                        0                                0                       0                    0                     0                     0                     1.2123901886866156e-18    0                             0                           0                     0.99975009371095458  0.019995001874219091  0.0099975009371095457        0                                0                         
                       1.2121044333527962e-18                          7                                           1962.1099328034443                  -2.7649690941936365e-08                -1.3401995712983976e-22             -1.5165305231786646e-22         9.1637974870821801e-26             0.012846755796082856                    0.012846755796082856                      0.012846755796082856             -1.3153240093068369e-22     0.0024363937419945346  0.0024363937419945346   0                     0                     1.2123875271680698e-18    1                             1                           0                     0.99975022938042524  0.019988064391454525  0.0099977696598712116        4.8470513424369123e-15              4.8470513424369123e-15       
                       1.2115683633696365e-18                          13                                          1970.584524710622                   -2.7648870138019486e-08                -5.3606998315973404e-22             -1.5132847050900949e-22         2.2881252772689878e-24             0.064192216807164817                    0.064192216807164817                      0.064192216807164817             -6.5766235495926764e-22     0.012181968681047735  0.012181968681047735   0                     0                     1.2123750660698274e-18    2                             2                           0                     0.99975076427451659  0.019960312123980879  0.0099988425155753523        1.9388205369747649e-14              2.4235256712184561e-14       
                       1.2115683633696365e-18                          14                                          1970.584524710622                   -2.7648870138019486e-08                 0                               -1.5132847050900949e-22         2.2881252772689878e-24             0.064192216807164817                    0.064192216807164817                      0.064192216807164817             -6.5766235495926764e-22     0.012181968681047735  0.012181968681047735   0                     0                     1.2123750660698274e-18    3                             0                           1                     0.99975076427451659  0.019960312123980879  0.0099988425155753523        0                                2.4235256712184561e-14       
                       1.2094242521244708e-18                          20                                          2002.1444084466034                  -2.7645260401267731e-08                -2.1441112451656828e-21             -1.5010518522299131e-22         4.0119617379013426e-23             0.26872233726625838                    0.26872233726625838                      0.26872233726625838             -2.7621873462885946e-21     0.05116426635466511  0.05116426635466511   0                     0                     1.2122964250386035e-18    4                             1                           1                     0.99975277998291678  0.019849265909801437  0.010003101088593206        7.7552821478990597e-14              1.0178807819117516e-13       
                       1.200851162238053e-18                          26                                          2092.3761575813101                  -2.76263506232895e-08                -8.5730898864179201e-21             -1.46368769150202e-22         6.3054831870311477e-22             1.0617152832779779                     1.0617152832779779                       1.0617152832779779              -1.1180343424961621e-20     0.20709332006066453  0.20709332006066453   0                     0                     1.2115473261134616e-18    5                             2                           1                     0.99975893330551968  0.019404502254465678  0.010019591124463031        3.1021128591596239e-13              4.1199936410713751e-13       
                       1.200851162238053e-18                          27                                          2092.3761575813101                  -2.76263506232895e-08                 0                               -1.46368769150202e-22         6.3054831870311477e-22             1.0617152832779779                     1.0617152832779779                       1.0617152832779779              -1.1180343424961621e-20     0.20709332006066453  0.20709332006066453   0                     0                     1.2115473261134616e-18    6                             0                           2                     0.99975893330551968  0.019404502254465678  0.010019591124463031        0                                4.1199936410713751e-13       
                       1.1809842498260231e-18                          33                                          2118.1581572547962                  -2.7575096540984516e-08                -1.9866912412029731e-20             -1.4346111964883522e-22         3.9126213511426995e-21             2.5901742041374858                     2.5901742041374858                       2.5901742041374858              -3.0715192117174317e-20     0.56893429507149451  0.56893429507149451   0                     0                     1.2079302817117036e-18    7                             1                           2                     0.99976369670291898  0.018369102076029261  0.010054181207858549        7.1986555903954212e-13              1.1318649231466796e-12       
                       1.1587000121320021e-18                          39                                          1933.8640255959438                  -2.7547444295169103e-08                -2.2284237694021083e-20             -1.4485671731838144e-22         8.039160806621202e-21             3.5735206665927373                     3.5735206665927373                       3.5735206665927373              -5.2660744413302545e-20     0.9754317697683158   0.9754317697683158    0                     0                     1.2034664524560019e-18    8                             2                           2                     0.9997613373289479   0.017201180613840225  0.010086091338957569        8.0872569874681468e-13              1.9405906218934944e-12       
                       1.1587000121320021e-18                          40                                          1933.8640255959438                  -2.7547444295169103e-08                 0                               -1.4485671731838144e-22         8.039160806621202e-21             3.5735206665927373                     3.5735206665927373                       3.5735206665927373              -5.2660744413302545e-20     0.9754317697683158   0.9754317697683158    0                     0                     1.2034664524560019e-18    9                             0                           3                     0.9997613373289479   0.017201180613840225  0.010086091338957569        0                                1.9405906218934944e-12       
                       1.1353595243115992e-18                          46                                          1597.7324869888726                  -2.7545623780458e-08                -2.3340487820402898e-20             -1.4616301264877996e-22         1.014874066143055e-20             3.8425167557831048                     3.8425167557831048                       3.8425167557831048              -7.5655259986441662e-20     1.4013609393648669   1.4013609393648669    0                     0                     1.2010122066492591e-18    10                            1                           3                     0.99975908684684256  0.015973199195807211  0.010110785437193751        8.4741964228813036e-13              2.7880102641816248e-12       
                       1.1123372287555477e-18                          52                                          1214.2276920189126                  -2.7526691764680579e-08                -2.3022295556051504e-20             -1.4597168071815967e-22         9.6516884585973564e-21             3.5785488458330992                     3.8425167557831048                       3.8425167557831048              -9.8341072177771835e-20     1.8215694427057805   1.8215694427057805    0                     0                     1.2011725841554404e-18    11                            2                           3                     0.99975928644801204  0.014758670695483788  0.010125978846315985        8.3608743662407415e-13              3.6240977008056987e-12       
                       1.1123372287555477e-18                          53                                          1214.2276920189126                  -2.7526691764680579e-08                 0                               -1.4597168071815967e-22         9.6516884585973564e-21             3.5785488458330992                     3.5785488458330992                       3.8425167557831048              -9.8341072177771835e-20     1.8215694427057805   1.8215694427057805    0                     0                     1.2011725841554404e-18    12                            0                           4                     0.99975928644801204  0.014758670695483788  0.010125978846315985        0                                3.6240977008056987e-12       
                       1.0890926927643972e-18                          59                                          1315.2176376709779                  -2.7493082933136122e-08                -2.3244535991150532e-20             -1.4583555013457898e-22         7.4248398145904152e-21             2.9096030748678179                     3.5785488458330992                       3.8425167557831048              -1.2126808049829195e-19     2.2462456734261971   2.2462456734261971    0                     0                     1.2030817689982333e-18    13                            1                           4                     0.9997593856185113   0.013529422579276524  0.010131978186516887        8.4504195830598591e-13              4.4691396591116847e-12       
                       1.0648052054152343e-18                          65                                          1372.8514211168301                  -2.7478702488536637e-08                -2.4287487349162743e-20             -1.4898116102324228e-22         4.7090574001870274e-21             1.9102275656709267                     3.5785488458330992                       3.8425167557831048              -1.4524351250085293e-19     2.6903564447224233   2.6903564447224233    0                     0                     1.2054886416769236e-18    14                            2                           4                     0.99975402189475648  0.012243364823688445  0.010128130478905286        8.8380030365281747e-13              5.3529399627645023e-12       
                       1.0648052054152343e-18                          66                                          1372.8514211168301                  -2.7478702488536637e-08                 0                               -1.4898116102324228e-22         4.7090574001870274e-21             1.9102275656709267                     1.9102275656709267                       3.8425167557831048              -1.4524351250085293e-19     2.6903564447224233   2.6903564447224233    0                     0                     1.2054886416769236e-18    15                            0                           5                     0.99975402189475648  0.012243364823688445  0.010128130478905286        0                                5.3529399627645023e-12       
                       1.0391510068746769e-18                          72                                          1271.7201880423811                  -2.7478343080377411e-08                -2.5654198540557585e-20             -1.6049369039615053e-22         3.4259074879706749e-21             1.761924373759985                      1.9102275656709267                       3.8425167557831048              -1.7056674080177959e-19     3.1594815193296371   3.1594815193296371    0                     0                     1.2064523338788818e-18    16                            1                           5                     0.99973471243828904  0.010885740622678795  0.010112607938666151        9.3369502121693724e-13              6.2866349839814393e-12       
                       1.0128430153949425e-18                          78                                          995.30882036094897                  -2.7457991339540384e-08                -2.6307991479734232e-20             -1.8368363570511364e-22         4.8445385008410019e-21             1.8545547468046908                     1.9102275656709267                       3.8425167557831048              -1.9653505515235715e-19     3.6406451428454552   3.6406451428454552    0                     0                     1.2047172156821639e-18    17                            2                           5                     0.99969590981130185  0.0094957112436997813  0.010084012552929927        9.5779933041296151e-13              7.2444343143944012e-12       
                       1.0128430153949425e-18                          79                                          995.30882036094897                  -2.7457991339540384e-08                 0                               -1.8368363570511364e-22         4.8445385008410019e-21             1.8545547468046908                     1.8545547468046908                       3.8425167557831048              -1.9653505515235715e-19     3.6406451428454552   3.6406451428454552    0                     0                     1.2047172156821639e-18    18                            0                           6                     0.99969590981130185  0.0094957112436997813  0.010084012552929927        0                                7.2444343143944012e-12       
                       9.8621351602373093e-19                          85                                          1146.4563298886744                  -2.7432892684351052e-08                -2.662949937121172e-20             -2.1655153902777619e-22         7.8352601034684302e-21             2.6316741618881019                     2.6316741618881019                       3.8425167557831048              -2.2283529054805345e-19     4.1280621089709433   4.1280621089709433    0                     0                     1.2014300980073437e-18    19                            1                           6                     0.99964083525435854  0.0080917316710240432  0.010041420656352062        9.7041857950982081e-13              8.2148528939042217e-12       
                       9.6218410434055625e-19                          97                                          1217.6497660311034                  -2.7428822592031746e-08                -2.4029411683174664e-20             -2.5045237081155321e-22         9.9975493810271403e-21             3.055429305215839                      3.055429305215839                        3.8425167557831048              -2.4657027892179208e-19     4.5680172709536029   4.5680172709536029    0                     0                     1.1990072862521328e-18    20                            2                           6                     0.99958384688337165  0.0068294913327736195  0.009990883794629396        8.7609223350374277e-13              9.0909451274079645e-12       
# Table End
