# ODT 1.0
# Table Start
# Title: mmArchive Data Table, Wed Jun 16 18:42:56 EDT 2010
# Columns: {Oxs_RungeKuttaEvolve:evolve:Total energy} {Oxs_RungeKuttaEvolve:evolve:Energy calc count} {Oxs_RungeKuttaEvolve:evolve:Max dm/dt} Oxs_RungeKuttaEvolve:evolve:dE/dt {Oxs_RungeKuttaEvolve:evolve:Delta E} Oxs_UniformExchange:NiFe:Energy {Oxs_UniformExchange:NiFe:Max Spin Ang} {Oxs_UniformExchange:NiFe:Stage Max Spin Ang} {Oxs_UniformExchange:NiFe:Run Max Spin Ang} Oxs_UZeeman::Energy  Oxs_UZeeman::B       Oxs_UZeeman::Bx      Oxs_UZeeman::By      Oxs_UZeeman::Bz      Oxs_Demag::Energy    Oxs_TimeDriver::Iteration {Oxs_TimeDriver::Stage iteration} Oxs_TimeDriver::Stage Oxs_TimeDriver::mx   Oxs_TimeDriver::my   Oxs_TimeDriver::mz   {Oxs_TimeDriver::Last time step} {Oxs_TimeDriver::Simulation time}
# Units:                       J                                            {}                                        deg/ns                                 J/s                                  J                                  J                                  deg                                        deg                                          deg                              J                 mT                   mT                   mT                   mT                     J                       {}                            {}                          {}                   {}                   {}                   {}                          s                                 s                
                       3.8788325675189916e-17                          1                                           2452.2583997148517                  -4.6706417392120291e-07                 0                                  0                                   0                                          0                                            0                                0                    0                    0                    0                    0                    3.8788325675189916e-17    0                             0                           0                     0.99498743713555371  0.099999999712112334  0                          0                                0                         
                       3.8786516806995336e-17                          7                                           2451.6566486054189                  -4.6679106606699402e-07                -1.8088681945799017e-21                9.689234842006167e-25                 0.0061828570424741526                        0.0061828570424741526                          0.0061828570424741526              0                    0                    0                    0                    0                    3.8786515838071851e-17    1                             1                           0                     0.99498759718723717  0.09999838833096393  3.2367350967968769e-06        3.8739800019054508e-15              3.8739800019054508e-15       
                       3.877929190220071e-17                          13                                          2449.2426034557493                  -4.6570072659671579e-07                -7.2249047946243816e-21                2.4164040852468562e-23                 0.030871361278901933                        0.030871361278901933                          0.030871361278901933              0                    0                    0                    0                    0                    3.8779267738159857e-17    2                             2                           0                     0.99498820100340202  0.099991927700186584  1.6168811860487459e-05        1.5495920007621803e-14              1.9369900009527256e-14       
                       6.3028770214496629e-18                          14                                          2415.9257389667841                  -4.6951067688454522e-07                -3.247641488075105e-17                2.4164040852468562e-23                 0.030871361278901933                        0.030871361278901933                          0.030871361278901933             -3.247641488075105e-17  50.000000000000007   50.000000000000007   0                    0                    3.8779267738159857e-17    3                             0                           1                     0.99498820100340202  0.099991927700186584  1.6168811860487459e-05        0                                1.9369900009527256e-14       
                       6.301031363682995e-18                          20                                          2415.2576247758211                  -4.6922033022859301e-07                -1.845657766668082e-21                3.4948325295934979e-23                 0.037124892064732587                        0.037124892064732587                          0.037124892064732587             -3.2476424097123237e-17  50.000000000000007   50.000000000000007   0                    0                    3.8777420512480936e-17    4                             1                           1                     0.99498848336774603  0.09998890678663068  2.2213334657425238e-05        3.9322400712791996e-15              2.3302140080806454e-14       
                       6.2936601363464162e-18                          26                                          2412.5783735747559                  -4.6806121432121626e-07                -7.3712273365782133e-21                9.780149423396141e-23                 0.062093758538112616                        0.062093758538112616                          0.062093758538112616             -3.2476459767012535e-17  50.000000000000007   50.000000000000007   0                    0                    3.8770022101864719e-17    5                             2                           1                     0.99498957619523687  0.099976797580284008  4.636946837566953e-05        1.5728960285116799e-14              3.903110036592325e-14       
                      -2.6182799630666118e-17                          27                                          2379.3698075379543                  -4.7410001857453065e-07                -3.2476459767012535e-17                9.780149423396141e-23                 0.062093758538112616                        0.062093758538112616                          0.062093758538112616             -6.4952919534025069e-17  100.00000000000001   100.00000000000001   0                    0                    3.8770022101864719e-17    6                             0                           2                     0.99498957619523687  0.099976797580284008  4.636946837566953e-05        0                                3.903110036592325e-14       
                      -2.6184691932142548e-17                          33                                          2378.6341467988132                  -4.7379160161401127e-07                -1.8923014764301989e-21                1.187539158679842e-22                 0.068419419019129249                        0.068419419019129249                          0.068419419019129249             -6.4952946205218289e-17  100.00000000000001   100.00000000000001   0                    0                    3.8768135519159878e-17    7                             1                           2                     0.99498998476130951  0.099972317772118624  5.5303933630060777e-05        3.9926538404848031e-15              4.3023754206408058e-14       
                      -2.6192248838850919e-17                          39                                          2375.6849979862154                  -4.7256040832191872e-07                -7.5569067083686527e-21                2.2268489447353426e-22                 0.093674341578460829                        0.093674341578460829                          0.093674341578460829             -6.4953050478857878e-17  100.00000000000001   100.00000000000001   0                    0                    3.8760578955112483e-17    8                             2                           2                     0.99499158209034722  0.099954360741192294  9.1010731614256222e-05        1.5970615361939213e-14              5.899436956834727e-14       
                       3.8760801640006956e-17                          40                                          2443.0051213515071                  -4.6291656963464808e-07                 6.4953050478857878e-17                2.2268489447353426e-22                 0.093674341578460829                        0.093674341578460829                          0.093674341578460829              0                    0                    0                    0                    0                    3.8760578955112483e-17    9                             0                           3                     0.99499158209034722  0.099954360741192294  9.1010731614256222e-05        0                                5.899436956834727e-14       
                       3.8759002044835579e-17                          46                                          2442.3905842021904                  -4.6264561670922551e-07                -1.7995951713816317e-21                2.5285862618699957e-22                 0.09981464694929934                        0.09981464694929934                          0.09981464694929934              0                    0                    0                    0                    0                    3.8758749186209386e-17    10                            1                           3                     0.99499168857614984  0.099952707109468963  9.4229547604550337e-05        3.8886533298564912e-15              6.2883022898203758e-14       
                       3.8751814188416765e-17                          52                                          2439.9257432685558                  -4.6156388792129908e-07                -7.1878564188137351e-21                3.924795605237407e-22                 0.12433175013392558                        0.12433175013392558                          0.12433175013392558              0                    0                    0                    0                    0                    3.875142170885624e-17    11                            2                           3                     0.99499207834627168  0.099946077532660382  0.00010708982868265688        1.5554613319425965e-14              7.8437636217629723e-14       
                       1.0370489706286139e-16                          53                                          2509.1344325016103                  -4.6123015506445464e-07                 6.4953082874444625e-17                3.924795605237407e-22                 0.12433175013392558                        0.12433175013392558                          0.12433175013392558              6.4953082874444625e-17  100.00000000000001  -100.00000000000001   0                    0                    3.875142170885624e-17    12                            0                           4                     0.99499207834627168  0.099946077532660382  0.00010708982868265688        0                                7.8437636217629723e-14       
                       1.0370315121609698e-16                          59                                          2508.6371988064138                  -4.6099392302733623e-07                -1.745846764403573e-21                4.3105270810599549e-22                 0.13029214284426077                        0.13029214284426077                          0.13029214284426077              6.4953071113393169e-17  100.00000000000001  -100.00000000000001   0                    0                    3.8749649049995707e-17    13                            1                           4                     0.99499189818310596  0.099947116519692208  0.00010489337409147119        3.786166208132773e-15              8.2223802425762492e-14       
                       1.0369617676310695e-16                          65                                          2506.6414763912485                  -4.6005076743491528e-07                -6.9744529900377633e-21                6.0315479785342222e-22                 0.15409300009262231                        0.15409300009262231                          0.15409300009262231              6.4953021739785049e-17  100.00000000000001  -100.00000000000001   0                    0                    3.8742551868524042e-17    14                            2                           4                     0.99499114184719728  0.09995127359491196  9.6101436060507358e-05        1.5144664832531092e-14              9.7368467258293594e-14       
                       3.8743155023321897e-17                          66                                          2436.9254717113463                  -4.6026017183092794e-07                -6.4953021739785049e-17                6.0315479785342222e-22                 0.15409300009262231                        0.15409300009262231                          0.15409300009262231              0                    0                    0                    0                    0                    3.8742551868524042e-17    15                            0                           5                     0.99499114184719728  0.09995127359491196  9.6101436060507358e-05        0                                9.7368467258293594e-14       
                       3.8741361291417758e-17                          72                                          2436.3028560750254                  -4.599905926492443e-07                -1.7937319041389971e-21                6.520156409774925e-22                 0.16020467983793996                        0.16020467983793996                          0.16020467983793996              0                    0                    0                    0                    0                    3.8740709275776777e-17    16                            1                           5                     0.99499121217455611  0.099949609343972484  9.9318203722022474e-05        3.8983547549070366e-15              1.0126682201320063e-13       
                       3.8734196860801809e-17                          78                                          2433.8059282100471                  -4.5891435348557597e-07                -7.1644306159501122e-21                8.6613096505364214e-22                 0.18460653989889955                        0.18460653989889955                          0.18460653989889955              0                    0                    0                    0                    0                    3.8733330729836756e-17    17                            2                           5                     0.99499145745355166  0.099942937287755135  0.0001121702054126154        1.5593419019628146e-14              1.1686024103282878e-13       
                       3.7103128124265643e-17                          79                                          2606.25221916486                    -4.7384716960727045e-07                -1.631068736536164e-18                8.6613096505364214e-22                 0.18460653989889955                        0.18460653989889955                          0.18460653989889955             -1.631068736536164e-18  25.000000000000004   0                    25.000000000000004   0                    3.8733330729836756e-17    18                            0                           6                     0.99499145745355166  0.099942937287755135  0.0001121702054126154        0                                1.1686024103282878e-13       
                       3.7101401362936571e-17                          85                                          2605.7527342181529                  -4.7360034440788187e-07                -1.7267613290706833e-21                9.2047284622628077e-22                 0.19030014076627288                        0.19030014076627288                          0.19030014076627288             -1.6311468776594344e-18  25.000000000000004   0                    25.000000000000004   0                    3.8731627767749781e-17    19                            1                           6                     0.99499086992835406  0.099947725346779051  0.00010240949428689435        3.645080829147132e-15              1.205053218619759e-13       
                       3.7094503304542664e-17                          91                                          2603.7483860809757                  -4.7261488222481199e-07                -6.8980583939053604e-21                1.1540146630435876e-21                 0.21303447729145206                        0.21303447729145206                          0.21303447729145206             -1.6314598396903262e-18  25.000000000000004   0                    25.000000000000004   0                    3.8724809129569947e-17    20                            2                           6                     0.99498848362039871  0.099966901941809183  6.3374883141941379e-05        1.4580323316588528e-14              1.3508564517856444e-13       
# Table End
