# ODT 1.0
# Table Start
# Title: mmArchive Data Table, Wed Jun 11 15:35:25 EDT 2014
# Columns: {Oxs_RungeKuttaEvolve:evolve:Total energy} {Oxs_RungeKuttaEvolve:evolve:Energy calc count} {Oxs_RungeKuttaEvolve:evolve:Max dm/dt} Oxs_RungeKuttaEvolve:evolve:dE/dt {Oxs_RungeKuttaEvolve:evolve:Delta E} Oxs_UniformExchange:NiFe:Energy {Oxs_UniformExchange:NiFe:Max Spin Ang} {Oxs_UniformExchange:NiFe:Stage Max Spin Ang} {Oxs_UniformExchange:NiFe:Run Max Spin Ang} Oxs_UZeeman::Energy  Oxs_UZeeman::B       Oxs_UZeeman::Bx      Oxs_UZeeman::By      Oxs_UZeeman::Bz      Oxs_Demag::Energy    Oxs_TimeDriver::Iteration {Oxs_TimeDriver::Stage iteration} Oxs_TimeDriver::Stage Oxs_TimeDriver::mx   Oxs_TimeDriver::my   Oxs_TimeDriver::mz   {Oxs_TimeDriver::Last time step} {Oxs_TimeDriver::Simulation time}
# Units:                       J                                            {}                                        deg/ns                                 J/s                                  J                                  J                                  deg                                        deg                                          deg                              J                 mT                   mT                   mT                   mT                     J                       {}                            {}                          {}                   {}                   {}                   {}                          s                                 s                
                       3.8788325675193583e-17                          1                                           2452.2583997163638                  -4.6706417392126956e-07                 0                                  0                                   0                                          0                                            0                                0                    0                    0                    0                    0                    3.8788325675193583e-17    0                             0                           0                     0.99498743713555371  0.099999999712112334  0                          0                                0                         
                       3.8786516806999003e-17                          7                                           2451.6566486069319                  -4.6679106606706073e-07                -1.8088681945790448e-21                9.6892348419959127e-25                 0.006182857042437798                        0.006182857042437798                          0.006182857042437798              0                    0                    0                    0                    0                    3.8786515838075518e-17    1                             1                           0                     0.99498759718723717  0.099998388330963944  3.236735096794816e-06        3.8739800019030621e-15              3.8739800019030621e-15       
                       3.8779291902204383e-17                          13                                          2449.2426034572641                  -4.6570072659678297e-07                -7.2249047946209646e-21                2.4164040852443022e-23                 0.030871361278896999                        0.030871361278896999                          0.030871361278896999              0                    0                    0                    0                    0                    3.877926773816353e-17    2                             2                           0                     0.99498820100340202  0.099991927700186597  1.6168811860477173e-05        1.5495920007612249e-14              1.9369900009515312e-14       
                       3.8750560466463492e-17                          19                                          2439.4767122224839                  -4.6137265743024224e-07                -2.873143574089199e-20                4.2210593651937161e-22                 0.12893213819383456                        0.12893213819383456                          0.12893213819383456              0                    0                    0                    0                    0                    3.8750138360526972e-17    3                             3                           0                     0.99499003763801241  0.09996584450602343  6.7659211839569958e-05        6.1983680030448994e-14              8.13535800399643e-14       
                       3.8638268715381827e-17                          25                                          2398.8426326368349                  -4.4458174535850914e-07                -1.1229175108166411e-19                6.648967504782638e-21                 0.50972706183716421                        0.50972706183716421                          0.50972706183716421              0                    0                    0                    0                    0                    3.8631619747877044e-17    4                             4                           0                     0.99498835563015831  0.099857726558442564  0.00026980895429115393        2.4793472012179598e-13              3.2928830016176029e-13       
                       6.1618487876134545e-18                          26                                          2361.4737326154486                  -4.4740423166159556e-07                -3.2476419927768374e-17                6.648967504782638e-21                 0.50972706183716421                        0.50972706183716421                          0.50972706183716421             -3.2476419927768374e-17  50.000000000000007   50.000000000000007   0                    0                    3.8631619747877044e-17    5                             0                           1                     0.99498835563015831  0.099857726558442564  0.00026980895429115393        0                                3.2928830016176029e-13       
                       6.1600494818908252e-18                          32                                          2360.7436228869651                  -4.4712490069435434e-07                -1.79930572262883e-21                6.8078770188524003e-21                 0.51574365109848286                        0.51574365109848286                          0.51574365109848286             -3.2476419865159436e-17  50.000000000000007   50.000000000000007   0                    0                    3.8629661470031411e-17    6                             1                           1                     0.99498835371199246  0.099854508496821953  0.00027586170080082088        4.0229115694961729e-15              3.3331121173125645e-13       
                       6.1528634827003003e-18                          38                                          2357.8183039151263                  -4.4600981960622941e-07                -7.1859991905249131e-21                7.4611689267529609e-21                 0.53975892454653185                        0.53975892454653185                          0.53975892454653185             -3.2476418456856999e-17  50.000000000000007   50.000000000000007   0                    0                    3.8621820770630544e-17    7                             2                           1                     0.99498831056547166  0.099841610405218717  0.00030004959906856725        1.6091646277984692e-14              3.4940285800924114e-13       
                       6.1242980583070546e-18                          44                                          2346.0420332372678                  -4.4158518657888961e-07                -2.8565424393245724e-20                1.0352696941172305e-20                 0.63499927140649393                        0.63499927140649393                          0.63499927140649393             -3.247639442996889e-17  50.000000000000007   50.000000000000007   0                    0                    3.8590339791334768e-17    8                             3                           1                     0.99498757444757602  0.099789606121826621  0.00039643168943527248        6.4366585111938767e-14              4.1376944312117991e-13       
                       6.0128301412435437e-18                          50                                          2350.2255870960566                  -4.2444527852052333e-07                -1.1146791706351114e-19                2.611824636521201e-20                 1.0026670451536279                         1.0026670451536279                           1.0026670451536279              -3.2476012375012332e-17  50.000000000000007   50.000000000000007   0                    0                    3.8462724269890666e-17    9                             4                           1                     0.99497586933248561  0.099575100668596969  0.000776042343789268        2.5746634044775507e-13              6.7123578356893498e-13       
                      -2.646318223376879e-17                          51                                          2379.9934836394386                  -4.2861712657872662e-07                -3.2476012375012332e-17                2.611824636521201e-20                 1.0026670451536279                         1.0026670451536279                           1.0026670451536279              -6.4952024750024665e-17  100.00000000000001   100.00000000000001   0                    0                    3.8462724269890666e-17    10                            0                           2                     0.99497586933248561  0.099575100668596969  0.000776042343789268        0                                6.7123578356893498e-13       
                      -2.6464892562689926e-17                          57                                          2380.0959106309956                  -4.2834537064345295e-07                -1.7103289211356553e-21                2.6411834359548643e-20                 1.0081843438804472                         1.0081843438804472                           1.0081843438804472              -6.4952015093715623e-17  100.00000000000001   100.00000000000001   0                    0                    3.8460710696666148e-17    11                            1                           2                     0.9949757214110847   0.099570280698031491  0.00078463900761437241        3.991607567543752e-15              6.7522739113647868e-13       
                      -2.6471723044138913e-17                          63                                          2380.4798595428574                  -4.2726054998633229e-07                -6.8304814489846452e-21                2.7600542961736613e-20                 1.0302010788112332                         1.0302010788112332                           1.0302010788112332              -6.4951974439420676e-17  100.00000000000001   100.00000000000001   0                    0                    3.8452650852320024e-17    12                            2                           2                     0.99497509864308609  0.09955096532812803  0.00081899436189167155        1.5966430270175008e-14              6.911938214066537e-13       
                      -2.6498872603291122e-17                          69                                          2381.6112288751992                  -4.2295631700304355e-07                -2.7149559152211235e-20                3.2581510376529522e-20                 1.1174286120566412                         1.1174286120566412                           1.1174286120566412              -6.4951779610599128e-17  100.00000000000001   100.00000000000001   0                    0                    3.8420325496931471e-17    13                            3                           2                     0.99497211413295217  0.099473138196096961  0.00095591487239225466        6.3865721080700033e-14              7.5505954248735378e-13       
                      -2.6604774682927722e-17                          75                                          2380.1529050855784                  -4.0628741112425206e-07                -1.0590207963660071e-19                5.5903354074518716e-20                 1.4529486830280272                         1.4529486830280272                           1.4529486830280272              -6.4950500869983364e-17  100.00000000000001   100.00000000000001   0                    0                    3.8289822832981125e-17    14                            4                           2                     0.99495252558185288  0.099152916337762242  0.0014955775140197483        2.5546288432280013e-13              1.0105224268101539e-12       
                       3.8345726187055644e-17                          76                                          2320.5102566634337                  -4.0188528040164114e-07                 6.4950500869983364e-17                5.5903354074518716e-20                 1.4529486830280272                         1.4529486830280272                           1.4529486830280272               0                    0                    0                    0                    0                    3.8289822832981125e-17    15                            0                           3                     0.99495252558185288  0.099152916337762242  0.0014955775140197483        0                                1.0105224268101539e-12       
                       3.834408138073111e-17                          82                                          2320.4545370251726                  -4.0164947649880024e-07                -1.6448063245327499e-21                5.6321924352547928e-20                 1.4581939682775342                         1.4581939682775342                           1.4581939682775342               0                    0                    0                    0                    0                    3.8287759456378563e-17    16                            1                           3                     0.9949518248269299   0.099150599650166232  0.0014984515128397796        4.0939271751634744e-15              1.0146163539853173e-12       
                       3.8337511797529011e-17                          88                                          2320.2106404256397                  -4.0070814007917981e-07                -6.5695832020966018e-21                5.8009031288661066e-20                 1.4791223917854934                         1.4791223917854934                           1.4791223917854934               0                    0                    0                    0                    0                    3.8279502766240352e-17    17                            2                           3                     0.99494898993975911  0.099141319212258883  0.001509930889403638        1.6375708700653898e-14              1.0309920626859713e-12       
                       3.83113868803497e-17                          94                                          2318.9061716780607                  -3.9697266934273937e-07                -2.6124917179314679e-20                6.4959529373001418e-20                 1.5619949568041898                         1.5619949568041898                           1.5619949568041898               0                    0                    0                    0                    0                    3.8246427350976701e-17    18                            3                           3                     0.99493714415249912  0.099103979608343704  0.0015555824853347089        6.5502834802615591e-14              1.0964948974885869e-12       
                       3.8209288007709056e-17                          100                                         2323.6023976998163                  -3.8249675752682467e-07                -1.0209887264064127e-19                9.5801765380829116e-20                 1.8802116031763187                         1.8802116031763187                           1.8802116031763187               0                    0                    0                    0                    0                    3.8113486242328228e-17    19                            4                           3                     0.99488189032844654  0.098951208651919129  0.0017339340961451514        2.6201133921046236e-13              1.3585062366990491e-12       
                       1.0315517780835006e-16                          101                                         2308.1338081964941                  -3.8880023891612829e-07                 6.4945889800640996e-17                9.5801765380829116e-20                 1.8802116031763187                         1.8802116031763187                           1.8802116031763187               6.4945889800640996e-17  100.00000000000001  -100.00000000000001   0                    0                    3.8113486242328228e-17    20                            0                           4                     0.99488189032844654  0.098951208651919129  0.0017339340961451514        0                                1.3585062366990491e-12       
                       1.0315357796281611e-16                          107                                         2307.4799498021389                  -3.8860137919450026e-07                -1.5998455339535586e-21                9.6328336125481733e-20                 1.8850979920731947                         1.8850979920731947                           1.8850979920731947               6.494580744962851e-17  100.00000000000001  -100.00000000000001   0                    0                    3.8111442177062117e-17    21                            1                           4                     0.994880628823966    0.098951718612438053  0.0017309995149596524        4.1158792294728408e-15              1.362622115928522e-12       
                       1.0314718675606319e-16                          113                                         2304.8641007715883                  -3.8780746928443955e-07                -6.3912067529160326e-21                9.8445848174302579e-20                 1.9045943158245029                         1.9045943158245029                           1.9045943158245029               6.4945475937450476e-17  100.00000000000001  -100.00000000000001   0                    0                    3.8103264970438408e-17    22                            2                           4                     0.99487555051241527  0.098953762516175547  0.001719254310580286        1.6463516917891363e-14              1.3790856328464134e-12       
                       1.0312175203348612e-16                          119                                         2294.3961209435743                  -3.8465613325801265e-07                -2.543472257707416e-20                1.0709300039988689e-19                 1.9818459154815129                         1.9818459154815129                           1.9818459154815129               6.4944116363651252e-17  100.00000000000001  -100.00000000000001   0                    0                    3.8070542669434981e-17    23                            3                           4                     0.99485472370789274  0.098962003668090201  0.0016721633970900346        6.5854067671565453e-14              1.4449397005179788e-12       
                       1.0302205077650257e-16                          125                                         2282.1250494144424                  -3.7242978756031073e-07                -9.9701256983541618e-20                1.443581910480371e-19                 2.2845497336800684                         2.2845497336800684                           2.2845497336800684               6.4938154558867072e-17  100.00000000000001  -100.00000000000001   0                    0                    3.793953802658746e-17    24                            4                           4                     0.99476339704146854  0.098996051808473887  0.0014820370671501206        2.6341627068626181e-13              1.7083559712042407e-12       
                       3.8083896217635498e-17                          126                                         2325.5257464044748                  -3.6494316629723581e-07                -6.4938154558867072e-17                1.443581910480371e-19                 2.2845497336800684                         2.2845497336800684                           2.2845497336800684               0                    0                    0                    0                    0                    3.793953802658746e-17    25                            0                           5                     0.99476339704146854  0.098996051808473887  0.0014820370671501206        0                                1.7083559712042407e-12       
                       3.8082405810598632e-17                          132                                         2325.4169265753958                  -3.6473684745584176e-07                -1.4904070368648613e-21                1.4495971654152269e-19                 2.290065680097122                          2.290065680097122                            2.290065680097122                0                    0                    0                    0                    0                    3.7937446094057111e-17    26                            1                           5                     0.99476218244533521  0.098993677315328821  0.0014847154812303387        4.0850977524923434e-15              1.7124410689567331e-12       
                       3.8076452600842492e-17                          138                                         2324.9682645841003                  -3.6391319291175819e-07                -5.953209756143809e-21                1.4737451658430973e-19                 2.3121240811643182                         2.3121240811643182                           2.3121240811643182               0                    0                    0                    0                    0                    3.7929078084258182e-17    27                            2                           5                     0.99475729752459441  0.098984167031378661  0.0014954125269219208        1.6340391009969374e-14              1.7287814599667023e-12       
                       3.8052773717415875e-17                          144                                         2322.9643589511193                  -3.6064435804477507e-07                -2.367888342661205e-20                1.5717066960992943e-19                 2.4002632108563096                         2.4002632108563096                           2.4002632108563096               0                    0                    0                    0                    0                    3.7895603047805948e-17    28                            3                           5                     0.99473733641056161  0.09894593000931956  0.001537934983005232        6.5361564039877494e-14              1.7941430240065799e-12       
                       3.796015500624227e-17                          150                                         2311.8982671692997                  -3.4797234480847224e-07                -9.2618711173610387e-20                1.9841058860828196e-19                 2.7507767343836158                         2.7507767343836158                           2.7507767343836158               0                    0                    0                    0                    0                    3.7761744417633984e-17    29                            4                           5                     0.99465094689646272  0.098789917462782637  0.0017037764042304436        2.6144625615950998e-13              2.05558928016609e-12       
                       3.6347903553249656e-17                          151                                         2386.0317978716816                  -3.64421167932395e-07                -1.6122514529926128e-18                1.9841058860828196e-19                 2.7507767343836158                         2.7507767343836158                           2.7507767343836158              -1.6122514529926128e-18  25.000000000000004   0                    25.000000000000004   0                    3.7761744417633984e-17    30                            0                           6                     0.99465094689646272  0.098789917462782637  0.0017037764042304436        0                                2.05558928016609e-12       
                       3.6346452974984157e-17                          157                                         2385.9784118025777                  -3.6423693390609987e-07                -1.4505782654949446e-21                1.9906220959626347e-19                 2.7560810023433797                         2.7560810023433797                           2.7560810023433797              -1.6123252804224927e-18  25.000000000000004   0                    25.000000000000004   0                    3.7759716045810391e-17    31                            1                           6                     0.99464888812275609  0.098794441202358613  0.0016923150355824584        3.9815060337728576e-15              2.0595707861998626e-12       
                       3.6340657988394838e-17                          163                                         2385.7540053936441                  -3.6350147357597191e-07                -5.7949865893214475e-21                2.0167546544192873e-19                 2.7772869041123078                         2.7772869041123078                           2.7772869041123078              -1.6126211422736494e-18  25.000000000000004   0                    25.000000000000004   0                    3.7751603665226558e-17    32                            2                           6                     0.9946406240725757   0.098812569992257918  0.0016464801713207968        1.5926024135091431e-14              2.0754968103349541e-12       
                       3.6317594609779044e-17                          169                                         2384.6865857370481                  -3.6058312486845078e-07                -2.3063378615794086e-20                2.1223510707326006e-19                 2.8619243565461283                         2.8619243565461283                           2.8619243565461283              -1.6138134203274487e-18  25.000000000000004   0                    25.000000000000004   0                    3.7719172923033231e-17    33                            3                           6                     0.9946071073571493   0.098885626245554442  0.0014633104801639585        6.3704096540365722e-14              2.1392009068753198e-12       
                       3.6227164837757601e-17                          175                                         2377.9454838866686                  -3.4927821934050435e-07                -9.0429772021440698e-20                2.5607301473776908e-19                 3.1970314562350253                         3.1970314562350253                           3.1970314562350253              -1.6187235961427071e-18  25.000000000000004   0                    25.000000000000004   0                    3.7589815419162543e-17    34                            4                           6                     0.99446584641469116  0.099186494861685473  0.00073334804664056097        2.5481638616146289e-13              2.3940172930367827e-12       
# Table End
