# ODT 1.0
# Table Start
# Title: mmArchive Data Table, Wed Jun 11 15:35:29 EDT 2014
# Columns: {Oxs_RungeKuttaEvolve:evolve:Total energy} {Oxs_RungeKuttaEvolve:evolve:Energy calc count} {Oxs_RungeKuttaEvolve:evolve:Max dm/dt} Oxs_RungeKuttaEvolve:evolve:dE/dt {Oxs_RungeKuttaEvolve:evolve:Delta E} Oxs_ExchangePtwise::Energy {Oxs_ExchangePtwise::Max Spin Ang} {Oxs_ExchangePtwise::Stage Max Spin Ang} {Oxs_ExchangePtwise::Run Max Spin Ang} Oxs_UniaxialAnisotropy:Co:Energy Oxs_UZeeman::Energy  Oxs_UZeeman::B       Oxs_UZeeman::Bx      Oxs_UZeeman::By      Oxs_UZeeman::Bz      Oxs_Demag::Energy    Oxs_TimeDriver::Iteration {Oxs_TimeDriver::Stage iteration} Oxs_TimeDriver::Stage Oxs_TimeDriver::mx   Oxs_TimeDriver::my   Oxs_TimeDriver::mz   {Oxs_TimeDriver::Last time step} {Oxs_TimeDriver::Simulation time}
# Units:                       J                                            {}                                        deg/ns                                 J/s                                  J                               J                             deg                                   deg                                     deg                                  J                          J                 mT                   mT                   mT                   mT                     J                       {}                            {}                          {}                   {}                   {}                   {}                          s                                 s                
                       1.5104302086213288e-16                          1                                           2789.647831563519                   -5.1181607999776988e-07                 0                                0                              0                                     0                                       0                                   1.0816e-16                 0                    0                    0                    0                    0                    4.2883020862132868e-17    0                             0                           0                     0.99498743713555382  0.099999999712112334  0                          0                                0                         
                       1.5104127860019793e-16                          7                                           2789.2911989190966                  -5.1140445251414459e-07                -1.7422619349357903e-21              1.2194424213376111e-24            0.0059958214145159209                   0.0059958214145159209                     0.0059958214145159209                 1.0815999994810432e-16        0                    0                    0                    0                    0                    4.2881277432651195e-17    1                             1                           0                     0.99498760301779643  0.099998338146175772  3.3381417010031504e-06        3.4054477746302184e-15              3.4054477746302184e-15       
                       1.5103432355082751e-16                          13                                          2787.8576716919979                  -5.0976173786173181e-07                -6.9550493704383614e-21              3.0396856678036656e-23            0.029943760860604546                   0.029943760860604546                     0.029943760860604546                 1.0815999870306877e-16        0                    0                    0                    0                    0                    4.2874294450902049e-17    2                             2                           0                     0.99498824567630884  0.099991678816475874  1.6682365005613866e-05        1.3621791098520874e-14              1.7027238873151093e-14       
                       1.5100672588220897e-16                          19                                          2782.0136947553538                  -5.0325144775877737e-07                -2.7597668618536413e-20              5.2993523831488972e-22            0.12516498672473514                   0.12516498672473514                     0.12516498672473514                 1.0815997715303242e-16        0                    0                    0                    0                    0                    4.2846218793938233e-17    3                             3                           0                     0.99499048529809786  0.099964833245729204  6.9925684612468053e-05        5.4487164394083495e-14              7.1514403267234582e-14       
                       1.5089980395977437e-16                          25                                          2757.0111518314857                  -4.7816836618277145e-07                -1.0692192243460222e-19              8.2798312465310385e-21            0.49663910914812742                   0.49663910914812742                     0.49663910914812742                 1.081596272731928e-16        0                    0                    0                    0                    0                    4.2731896855335032e-17    4                             4                           0                     0.99499433198275977  0.099854169797208722  0.00028075779812724021        2.1794865757633398e-13              2.8946306084356856e-13       
                       1.0393607149018809e-16                          26                                          2718.0185226956191                  -4.8348624849498614e-07                -4.6963732469586272e-17              8.2798312465310385e-21            0.49663910914812742                   0.49663910914812742                     0.49663910914812742                 1.081596272731928e-16       -4.6963732469586272e-17  50.000000000000007   50.000000000000007   0                    0                    4.2731896855335032e-17    5                             0                           1                     0.99499433198275977  0.099854169797208722  0.00028075779812724021        0                                2.8946306084356856e-13       
                       1.0393438231520992e-16                          32                                          2717.5509249709389                  -4.8308410865135281e-07                -1.6891749781808261e-21              8.474299736708592e-21            0.502464476732568                     0.502464476732568                       0.502464476732568                   1.0815961811059065e-16       -4.6963738143091195e-17  50.000000000000007   50.000000000000007   0                    0                    4.2730028047973755e-17    6                             1                           1                     0.9949944521841354   0.099851123646650206  0.00028656345616225287        3.4951932522440242e-15              2.9295825409581257e-13       
                       1.0392763964983723e-16                          38                                          2715.6750277395968                  -4.8147955858200844e-07                -6.7426653726792234e-21              9.2731173510889898e-21            0.52572486060981727                   0.52572486060981727                     0.52572486060981727                 1.0815958033722435e-16       -4.6963759938996287e-17  50.000000000000007   50.000000000000007   0                    0                    4.2722546134258086e-17    7                             2                           1                     0.99499491396178563  0.099838917048471476  0.00030977134348791419        1.3980773008976097e-14              3.0693902710478868e-13       
                       1.0390089197584846e-16                          44                                          2708.0854937312965                  -4.7512524385229492e-07                -2.6747673988781281e-20              1.2797571029673799e-20            0.61810604235741184                   0.61810604235741184                     0.61810604235741184                 1.0815941127678001e-16       -4.6963832896786567e-17  50.000000000000007   50.000000000000007   0                    0                    4.2692516024825325e-17    8                             3                           1                     0.99499645967768136  0.099789739903400912  0.00040236698765575902        5.5923092035904387e-14              3.6286211914069309e-13       
                       1.037973702522174e-16                          50                                          2676.4874972008442                  -4.5071164545081044e-07                -1.0352172363104514e-19              3.1796134030574935e-20            0.97691149834347824                   0.97691149834347824                     0.97691149834347824                 1.0815844715827369e-16       -4.6963906177761125e-17  50.000000000000007   50.000000000000007   0                    0                    4.257103313767427e-17    9                             4                           1                     0.99499801224070172  0.099587494222643846  0.00076897690704921221        2.2369236814361755e-13              5.8655448728431066e-13       
                       5.683346407445628e-17                          51                                          2634.0034992299534                  -4.5852026758715437e-07                -4.6963906177761125e-17              3.1796134030574935e-20            0.97691149834347824                   0.97691149834347824                     0.97691149834347824                 1.0815844715827369e-16       -9.3927812355522249e-17  100.00000000000001   100.00000000000001   0                    0                    4.257103313767427e-17    10                            0                           2                     0.99499801224070172  0.099587494222643846  0.00076897690704921221        0                                5.8655448728431066e-13       
                       5.6831811048262552e-17                          57                                          2633.4336496738674                  -4.5812754553181909e-07                -1.6530261937307002e-21              3.2161407636702079e-20            0.98254227788657678                   0.98254227788657678                     0.98254227788657678                 1.0815842743768379e-16       -9.3927821173503236e-17  100.00000000000001   100.00000000000001   0                    0                    4.2569043376445297e-17    11                            1                           2                     0.99499810565151725  0.099582884107539266  0.00077735624559228196        3.6066770612785102e-15              5.9016116434558913e-13       
                       5.682521308492063e-17                          63                                          2631.1503716889006                  -4.5656086723454075e-07                -6.5979633419175465e-21              3.3640152505034785e-20            1.0050193274360575                    1.0050193274360575                      1.0050193274360575                  1.0815834727564168e-16       -9.3927854826387834e-17  100.00000000000001   100.00000000000001   0                    0                    4.256108048316176e-17    12                            2                           2                     0.99499846214393872  0.099564410882542864  0.00081085032492618525        1.4426708245114041e-14              6.0458787259070322e-13       
                       5.6799045800809084e-17                          69                                          2621.9573812715535                  -4.503611080917629e-07                -2.6167284111546455e-20              3.9831828317095646e-20            1.0941895822207923                    1.0941895822207923                      1.0941895822207923                  1.0815800613031966e-16       -9.3927963832766314e-17  100.00000000000001   100.00000000000001   0                    0                    4.2529171674938643e-17    13                            3                           2                     0.99499961687252436  0.099489995503082379  0.00094445435172713663        5.7706832980456164e-14              6.6229470557115936e-13       
                       5.6697863422761926e-17                          75                                          2589.2174649583167                  -4.2660637498375535e-07                -1.0118237804716044e-19              6.8675286425739835e-20            1.4390439335485146                    1.4390439335485146                      1.4390439335485146                  1.0815631198768824e-16       -9.3928008939095844e-17  100.00000000000001   100.00000000000001   0                    0                    4.24008850877438e-17    14                            4                           2                     0.99500009469381179  0.099184085540878944  0.0014729218127657539        2.3082733192182465e-13              8.9312203749298401e-13       
                       1.5062587236185778e-16                          76                                          2675.8679307836805                  -4.1570051131037712e-07                 9.3928008939095844e-17              6.8675286425739835e-20            1.4390439335485146                    1.4390439335485146                      1.4390439335485146                  1.0815631198768824e-16        0                    0                    0                    0                    0                    4.24008850877438e-17    15                            0                           3                     0.99500009469381179  0.099184085540878944  0.0014729218127657539        0                                8.9312203749298401e-13       
                       1.5062439711002907e-16                          82                                          2675.3684810465879                  -4.1536882121310534e-07                -1.4752518287052466e-21              6.9169242568145649e-20            1.4442362818321803                    1.4442362818321803                      1.4442362818321803                  1.0815628334002835e-16        0                    0                    0                    0                    0                    4.2398944527432568e-17    16                            1                           3                     0.99499980335635407  0.099181818948909053  0.0014760565682489198        3.5502499546820828e-15              8.9667228744766605e-13       
                       1.5061850786031791e-16                          88                                          2673.3678358180464                  -4.1404548153749905e-07                -5.8892497111616148e-21              7.1158683581475429e-20            1.4649624822519967                    1.4649624822519967                      1.4649624822519967                  1.081561676094431e-16        0                    0                    0                    0                    0                    4.2391181567293335e-17    17                            2                           3                     0.99499862207447831  0.099172740790679406  0.0014885866898569629        1.4200999818728331e-14              9.108732872663944e-13       
                       1.5059513762961447e-16                          94                                          2665.3215372694203                  -4.0880645952125564e-07                -2.3370230703452871e-20              7.9329886430907433e-20            1.5471771314153295                    1.5471771314153295                      1.5471771314153295                  1.0815568641683341e-16        0                    0                    0                    0                    0                    4.2360121326350133e-17    18                            3                           3                     0.9949936447101726   0.099136240275185958  0.0015385648608354388        5.6803999274913325e-14              9.6767728654130779e-13       
                       1.5050456028139479e-16                          100                                         2632.5498470770599                  -3.8869443480452779e-07                -9.0577348219671405e-20              1.151590725159762e-19            1.865077379124422                     1.865077379124422                       1.865077379124422                   1.0815346738511848e-16        0                    0                    0                    0                    0                    4.2235933823760327e-17    19                            4                           3                     0.99496986698794498  0.098987279971768025  0.0017362067921856779        2.272159970996533e-13              1.194893283640961e-12       
                       2.4442971572505681e-16                          101                                         2729.8771147022157                  -3.9209663230194716e-07                 9.3925155443662019e-17              1.151590725159762e-19            1.865077379124422                     1.865077379124422                       1.865077379124422                   1.0815346738511848e-16        9.3925155443662019e-17  100.00000000000001  -100.00000000000001   0                    0                    4.2235933823760327e-17    20                            0                           4                     0.99496986698794498  0.098987279971768025  0.0017362067921856779        0                                1.194893283640961e-12       
                       2.4442835171148892e-16                          107                                         2729.4562347784672                  -3.9181697613133544e-07                -1.3640135679049719e-21              1.1574948099255612e-19            1.86985685450725                      1.86985685450725                        1.86985685450725                    1.081534315603834e-16        9.3925093501235672e-17  100.00000000000001  -100.00000000000001   0                    0                    4.2234077168877265e-17    21                            1                           4                     0.99496921081817424  0.098987459921218227  0.0017343996537135379        3.4800101253042273e-15              1.1983732937662653e-12       
                       2.4442290537499662e-16                          113                                         2727.770649317014                   -3.9070108661101033e-07                -5.4463364922602101e-21              1.1812170959007769e-19            1.8889357276399885                    1.8889357276399885                      1.8889357276399885                  1.0815328716132154e-16        9.392484428993392e-17  100.00000000000001  -100.00000000000001   0                    0                    4.2226652214151089e-17    22                            2                           4                     0.99496657086794404  0.098988183249395151  0.0017271708778704563        1.3920040501216909e-14              1.2122933342674822e-12       
                       2.4440127445299217e-16                          119                                         2720.9967357942855                  -3.8628095531805532e-07                -2.1630922004449395e-20              1.2777678595974218e-19            1.9646287388908641                    1.9646287388908641                      1.9646287388908641                  1.0815269193787016e-16        9.3923824586489844e-17  100.00000000000001  -100.00000000000001   0                    0                    4.2196981142672437e-17    23                            3                           4                     0.99495576892468041  0.098991133302783654  0.0016982522141150071        5.5680162004867636e-14              1.2679734962723498e-12       
                       2.4431715524458856e-16                          125                                         2693.4873765766624                  -3.6927414613061198e-07                -8.4119208403643742e-20              1.6885062487230163e-19            2.2598224141421421                    2.2598224141421421                      2.2598224141421421                  1.081500275529963e-16        9.3919393018633734e-17  100.00000000000001  -100.00000000000001   0                    0                    4.2078884048086213e-17    24                            4                           4                     0.99490882434993344  0.099003856853873765  0.0015825202205884212        2.2272064801947054e-13              1.4906941442918202e-12       
                       1.5039776222595482e-16                          126                                         2590.9532395698616                  -3.6512252864576314e-07                -9.3919393018633734e-17              1.6885062487230163e-19            2.2598224141421421                    2.2598224141421421                      2.2598224141421421                  1.081500275529963e-16        0                    0                    0                    0                    0                    4.2078884048086213e-17    25                            0                           5                     0.99490882434993344  0.099003856853873765  0.0015825202205884212        0                                1.4906941442918202e-12       
                       1.5039642399637809e-16                          132                                         2590.4070959804935                  -3.6483336591800319e-07                -1.3382295767123919e-21              1.6954843221895162e-19            2.2654220036373185                    2.2654220036373185                      2.2654220036373185                  1.0814997801513816e-16        0                    0                    0                    0                    0                    4.2076897549020989e-17    26                            1                           5                     0.99490826536802446  0.099001455080525255  0.0015856826841956723        3.6666041883400206e-15              1.4943607484801604e-12       
                       1.5039108166372593e-16                          138                                         2588.2220780078446                  -3.6367976785957569e-07                -5.3423326521698554e-21              1.7234818587918154e-19            2.2878172834653046                    2.2878172834653046                      2.2878172834653046                  1.0814977860731117e-16        0                    0                    0                    0                    0                    4.2068954870535589e-17    27                            2                           5                     0.99490601642445675  0.098991836194074007  0.0015983231199539019        1.4666416753360082e-14              1.5090271652335204e-12       
                       1.5036988045681065e-16                          144                                         2579.4763874027408                  -3.5911382550607222e-07                -2.1201206915279199e-20              1.8368023448438228e-19            2.3773429741166123                    2.3773429741166123                      2.3773429741166123                  1.0814896086652008e-16        0                    0                    0                    0                    0                    4.2037239355806194e-17    28                            3                           5                     0.99489681485170978  0.098953172674316678  0.0016487343141617058        5.866566701344033e-14              1.5676928322469608e-12       
                       1.5028768774393906e-16                          150                                         2544.4937240667059                  -3.4160067849290876e-07                -8.2192712871598491e-20              2.309327979590455e-19            2.7341570428117055                    2.7341570428117055                      2.7341570428117055                  1.0814536806998944e-16        0                    0                    0                    0                    0                    4.1911386875990572e-17    29                            4                           5                     0.9948568690536348   0.098795555900612536  0.0018479801964440181        2.3466266805376132e-13              1.802355500300722e-12       
                       1.479561126246846e-16                          151                                         2749.7793380301823                  -3.6053571726107101e-07                -2.3315751192544564e-18              2.309327979590455e-19            2.7341570428117055                    2.7341570428117055                      2.7341570428117055                  1.0814536806998944e-16       -2.3315751192544564e-18  25.000000000000004   0                    25.000000000000004   0                    4.1911386875990572e-17    30                            0                           6                     0.9948568690536348   0.098795555900612536  0.0018479801964440181        0                                1.802355500300722e-12       
                       1.4795486746872125e-16                          157                                         2749.3015729689978                  -3.602862490398664e-07                -1.2451559633429971e-21              2.3164895716424617e-19            2.7393883826075096                    2.7393883826075096                      2.7393883826075096                  1.0814531535659574e-16       -2.3316615958352447e-18  25.000000000000004   0                    25.000000000000004   0                    4.1909564750796508e-17    31                            1                           6                     0.99485567008361653  0.098799220162510346  0.0018387902765594044        3.4548226719913353e-15              1.8058103229727133e-12       
                       1.4794989545052151e-16                          163                                         2747.3904992049165                  -3.5929088968099192e-07                -4.9720181997495569e-21              2.345190840041961e-19            2.7603066677491697                    2.7603066677491697                      2.7603066677491697                  1.0814510319841824e-16       -2.3320081654246498e-18  25.000000000000004   0                    25.000000000000004   0                    4.190228133352372e-17    32                            2                           6                     0.99485085955573849  0.098813905314603781  0.0018020444023279796        1.3819290687965341e-14              1.8196296136606788e-12       
                       1.4793014410046205e-16                          169                                         2739.7470403342213                  -3.5534937260298011e-07                -1.9751350059448241e-20              2.460851385867789e-19            2.8438612808126975                    2.8438612808126975                      2.8438612808126975                  1.0814423371168046e-16       -2.3334050445933541e-18  25.000000000000004   0                    25.000000000000004   0                    4.1873230294788169e-17    33                            3                           6                     0.99483138503916058  0.098873095109887871  0.0016552816714580107        5.5277162751861365e-14              1.87490677641254e-12       
                       1.4785326568811908e-16                          175                                         2709.2503180201948                  -3.4020368396800361e-07                -7.6878412342983422e-20              2.9357817900757588e-19            3.1758443149448268                    3.1758443149448268                      3.1758443149448268                  1.0814042365994812e-16       -2.3391614243135237e-18  25.000000000000004   0                    25.000000000000004   0                    4.17584252734769e-17    34                            4                           6                     0.9947498909836725   0.099117009504810311  0.0010717552098271205        2.2110865100744546e-13              2.0960154274199855e-12       
# Table End
