# ODT 1.0
# Table Start
# Title: mmArchive Data Table, Wed Jun 16 18:42:58 EDT 2010
# Columns: {Oxs_RungeKuttaEvolve:evolve:Total energy} {Oxs_RungeKuttaEvolve:evolve:Energy calc count} {Oxs_RungeKuttaEvolve:evolve:Max dm/dt} Oxs_RungeKuttaEvolve:evolve:dE/dt {Oxs_RungeKuttaEvolve:evolve:Delta E} Oxs_ExchangePtwise::Energy {Oxs_ExchangePtwise::Max Spin Ang} {Oxs_ExchangePtwise::Stage Max Spin Ang} {Oxs_ExchangePtwise::Run Max Spin Ang} Oxs_UniaxialAnisotropy:Co:Energy Oxs_UZeeman::Energy  Oxs_UZeeman::B       Oxs_UZeeman::Bx      Oxs_UZeeman::By      Oxs_UZeeman::Bz      Oxs_Demag::Energy    Oxs_TimeDriver::Iteration {Oxs_TimeDriver::Stage iteration} Oxs_TimeDriver::Stage Oxs_TimeDriver::mx   Oxs_TimeDriver::my   Oxs_TimeDriver::mz   {Oxs_TimeDriver::Last time step} {Oxs_TimeDriver::Simulation time}
# Units:                       J                                            {}                                        deg/ns                                 J/s                                  J                               J                             deg                                   deg                                     deg                                  J                          J                 mT                   mT                   mT                   mT                     J                       {}                            {}                          {}                   {}                   {}                   {}                          s                                 s                
                       1.5104302086212354e-16                          1                                           2789.647831564112                   -5.1181607999783457e-07                 0                                0                              0                                     0                                       0                                   1.0816e-16                 0                    0                    0                    0                    0                    4.2883020862123519e-17    0                             0                           0                     0.99498743713555382  0.099999999712112334  0                          0                                0                         
                       1.5104127860018859e-16                          7                                           2789.2911989196905                  -5.114044525142095e-07                -1.7422619349356421e-21              1.2194424213371464e-24            0.0059958214145231989                   0.0059958214145231989                     0.0059958214145231989                 1.0815999994810432e-16        0                    0                    0                    0                    0                    4.288127743264184e-17    1                             1                           0                     0.99498760301779643  0.099998338146175772  3.3381417010030271e-06        3.4054477746294943e-15              3.4054477746294943e-15       
                       1.5103432355081814e-16                          13                                          2787.8576716925932                  -5.0976173786179682e-07                -6.9550493704377655e-21              3.0396856678025653e-23            0.029943760860598294                   0.029943760860598294                     0.029943760860598294                 1.0815999870306877e-16        0                    0                    0                    0                    0                    4.28742944508927e-17    2                             2                           0                     0.99498824567630884  0.099991678816475874  1.6682365005613252e-05        1.3621791098517977e-14              1.7027238873147471e-14       
                       1.0407087835489636e-16                          14                                          2752.5692391568036                  -5.1598741400146832e-07                -4.6963445195921783e-17              3.0396856678025653e-23            0.029943760860598294                   0.029943760860598294                     0.029943760860598294                 1.0815999870306877e-16       -4.6963445195921783e-17  50.000000000000007   50.000000000000007   0                    0                    4.28742944508927e-17    3                             0                           1                     0.99498824567630884  0.099991678816475874  1.6682365005613252e-05        0                                1.7027238873147471e-14       
                       1.0406909825607732e-16                          20                                          2752.1561840274853                  -5.1555902236195464e-07                -1.7800988190435112e-21              4.3934605860717201e-23            0.036001996753904281                   0.036001996753904281                     0.036001996753904281                 1.0815999811530838e-16       -4.6963458364697663e-17  50.000000000000007   50.000000000000007   0                    0                    4.2872514570860744e-17    4                             1                           1                     0.99498852467579779  0.099988779098028405  2.2489529682188089e-05        3.4513209930770502e-15              2.0478559866224522e-14       
                       1.0406199262500413e-16                          26                                          2750.497076138548                   -5.1384950538960156e-07                -7.1056310732003499e-21              1.2276238399063542e-22            0.060197759124052862                   0.060197759124052862                     0.060197759124052862                 1.0815999465944904e-16       -4.6963510062668268e-17  50.000000000000007   50.000000000000007   0                    0                    4.2865385265839364e-17    5                             2                           1                     0.99498961997178514  0.099977158138207567  4.570386597377595e-05        1.3805283972308201e-14              3.4283843838532721e-14       
                       5.7098482562335858e-17                          27                                          2715.2478988912367                  -5.2333216168636204e-07                -4.6963510062668268e-17              1.2276238399063542e-22            0.060197759124052862                   0.060197759124052862                     0.060197759124052862                 1.0815999465944904e-16       -9.3927020125336537e-17  100.00000000000001   100.00000000000001   0                    0                    4.2865385265839364e-17    6                             0                           2                     0.99498961997178514  0.099977158138207567  4.570386597377595e-05        0                                3.4283843838532721e-14       
                       5.7096652329280927e-17                          33                                          2714.7776464352041                  -5.2288611203950342e-07                -1.8302330549245132e-21              1.489792189543836e-22            0.066319599817371316                   0.066319599817371316                     0.066319599817371316                 1.0815999347906493e-16       -9.3927057454271722e-17  100.00000000000001   100.00000000000001   0                    0                    4.2863567325268764e-17    7                             1                           2                     0.99499001540542065  0.099972981004339892  5.4044470827747754e-05        3.4987597279347114e-15              3.7782603566467431e-14       
                       5.7089346980515768e-17                          39                                          2712.889885410515                   -5.2110624785775266e-07                -7.3053487651680431e-21              2.7890475045491894e-22            0.090767852506209043                   0.090767852506209043                     0.090767852506209043                 1.0815998755539256e-16       -9.3927204827992962e-17  100.00000000000001   100.00000000000001   0                    0                    4.2856285348365714e-17    8                             2                           2                     0.99499157656772197  0.099956239975649924  8.7385052341256971e-05        1.3995038911738846e-14              5.1777642478206278e-14       
                       1.5101655180850873e-16                          40                                          2784.1464385677473                  -5.0559136978785902e-07                 9.3927204827992962e-17              2.7890475045491894e-22            0.090767852506209043                   0.090767852506209043                     0.090767852506209043                 1.0815998755539256e-16        0                    0                    0                    0                    0                    4.2856285348365714e-17    9                             0                           3                     0.99499157656772197  0.099956239975649924  8.7385052341256971e-05        0                                5.1777642478206278e-14       
                       1.5101482733524626e-16                          46                                          2783.7786238658655                  -5.0518471277984033e-07                -1.7244732624638665e-21              3.1664762911562296e-22            0.096721383038072331                   0.096721383038072331                     0.096721383038072331                 1.081599859044598e-16        0                    0                    0                    0                    0                    4.2854524783157342e-17    10                            1                           3                     0.99499171222128269  0.099954543863356005  9.0710576071824497e-05        3.4121768411316391e-15              5.5189819319337916e-14       
                       1.5100794329865877e-16                          52                                          2782.3006234332661                  -5.0356187332973956e-07                -6.8840365874820583e-21              4.9120362505301243e-22            0.12049934924089463                   0.12049934924089463                     0.12049934924089463                 1.0815997826312387e-16        0                    0                    0                    0                    0                    4.2847473831909857e-17    11                            2                           3                     0.99499223427689953  0.099947746433470402  0.00010400429224994889        1.3648707364526556e-14              6.8838526683864478e-14       
                       2.4493521021439811e-16                          53                                          2855.0526301333857                  -5.0144321351785067e-07                 9.3927266915739332e-17              4.9120362505301243e-22            0.12049934924089463                   0.12049934924089463                     0.12049934924089463                 1.0815997826312387e-16        9.3927266915739332e-17  100.00000000000001  -100.00000000000001   0                    0                    4.2847473831909857e-17    12                            0                           4                     0.99499223427689953  0.099947746433470402  0.00010400429224994889        0                                6.8838526683864478e-14       
                       2.4493354231154598e-16                          59                                          2854.7846435958354                  -5.0107272111952175e-07                -1.667902852110335e-21              5.394789508255262e-22            0.12629028461566147                   0.12629028461566147                     0.12629028461566147                 1.0815997624005877e-16        9.3927256369141027e-17  100.00000000000001  -100.00000000000001   0                    0                    4.2845770223395375e-17    13                            1                           4                     0.9949921225544599   0.099948420536070601  0.00010256480732104021        3.3274342825533717e-15              7.2165960966417849e-14       
                       2.449268830113413e-16                          65                                          2853.7060220784642                  -4.9959409437828218e-07                -6.6593002046763253e-21              7.5479541232016322e-22            0.14942065120685413                   0.14942065120685413                     0.14942065120685413                 1.081599671673102e-16        9.3927212226077974e-17  100.00000000000001  -100.00000000000001   0                    0                    4.2838948822540821e-17    14                            2                           4                     0.9949916549372666   0.099951118306395456  9.6806317429693134e-05        1.3309737130213487e-14              8.5475698096631331e-14       
                       1.5099967078526335e-16                          66                                          2780.4911294080248                  -5.0159797628627602e-07                -9.3927212226077974e-17              7.5479541232016322e-22            0.14942065120685413                   0.14942065120685413                     0.14942065120685413                 1.081599671673102e-16        0                    0                    0                    0                    0                    4.2838948822540821e-17    15                            0                           5                     0.9949916549372666   0.099951118306395456  9.6806317429693134e-05        0                                8.5475698096631331e-14       
                       1.5099795768358081e-16                          72                                          2780.1162166759718                  -5.011945146216744e-07                -1.7131016825371917e-21              8.1573847697466203e-22            0.15534603652964804                   0.15534603652964804                     0.15534603652964804                 1.0815996450216984e-16        0                    0                    0                    0                    0                    4.2837177442933999e-17    16                            1                           5                     0.99499176988634186  0.099949414435597614  0.00010013206845584005        3.416662581485228e-15              8.8892360678116564e-14       
                       1.5099111904237863e-16                          78                                          2778.6099896697224                  -4.9958445190656865e-07                -6.8386412021735413e-21              1.082634761217939e-21            0.17901092034952112                   0.17901092034952112                     0.17901092034952112                 1.0815995280339716e-16        0                    0                    0                    0                    0                    4.2830083604220256e-17    17                            2                           5                     0.99499220932864829  0.099942585990901264  0.00011342666076185636        1.3666650325940912e-14              1.0255901100405747e-13       
                       1.4863247401299337e-16                          79                                          2958.9905791442079                  -5.1770465939867638e-07                -2.3586450293852701e-18              1.082634761217939e-21            0.17901092034952112                   0.17901092034952112                     0.17901092034952112                 1.0815995280339716e-16       -2.3586450293852701e-18  25.000000000000004   0                    25.000000000000004   0                    4.2830083604220256e-17    18                            0                           6                     0.99499220932864829  0.099942585990901264  0.00011342666076185636        0                                1.0255901100405747e-13       
                       1.4863081249821413e-16                          85                                          2958.6970222879172                  -5.1732836077991085e-07                -1.6615147792268748e-21              1.1506750330752071e-21            0.18456160191966159                   0.18456160191966159                     0.18456160191966159                 1.0815995002881867e-16       -2.3587391205582693e-18  25.000000000000004   0                    25.000000000000004   0                    4.2828450914920668e-17    19                            1                           6                     0.99499174719985706  0.099946572905011397  0.00010530764123114171        3.2105543244911465e-15              1.0576956532854862e-13       
                       1.4862417850413345e-16                          91                                          2957.5164523833682                  -5.1582653703164199e-07                -6.6339940806795367e-21              1.4430275433684148e-21            0.20673135142256913                   0.20673135142256913                     0.20673135142256913                 1.0815993785973156e-16       -2.359115991411033e-18  25.000000000000004   0                    25.000000000000004   0                    4.2821913608269557e-17    20                            2                           6                     0.99498987682104878  0.099962542008942057  7.2842937806588399e-05        1.2842217297964586e-14              1.1861178262651321e-13       
# Table End
