# ODT 1.0
# Table Start
# Title: mmArchive Data Table, Tue Jul 19 17:57:55 EDT 2016
# Columns: {Oxs_RungeKuttaEvolve:evolve:Total energy} {Oxs_RungeKuttaEvolve:evolve:Energy calc count} {Oxs_RungeKuttaEvolve:evolve:Max dm/dt} Oxs_RungeKuttaEvolve:evolve:dE/dt {Oxs_RungeKuttaEvolve:evolve:Delta E} Oxs_TransformZeeman::Energy Oxs_UniformExchange::Energy {Oxs_UniformExchange::Max Spin Ang} {Oxs_UniformExchange::Stage Max Spin Ang} {Oxs_UniformExchange::Run Max Spin Ang} Oxs_Demag::Energy    Oxs_TimeDriver::Iteration {Oxs_TimeDriver::Stage iteration} Oxs_TimeDriver::Stage Oxs_TimeDriver::mx   Oxs_TimeDriver::my   Oxs_TimeDriver::mz   {Oxs_TimeDriver::Last time step} {Oxs_TimeDriver::Simulation time}
# Units:                       J                                            {}                                        deg/ns                                 J/s                                  J                                J                           J                              deg                                    deg                                      deg                           J                       {}                            {}                          {}                   {}                   {}                   {}                          s                                 s                
                       1.7585975662820518e-21                          1                                           0                                    0                                   0                                0                           0                               0                                      0                                        0                              1.7585975662820518e-21    0                             0                           0                     1                    0                    0                          0                                0                         
                       1.3153722873371211e-20                          7                                           169401.25952716768                  -4.7053784340442137e-07                 1.1395125307089157e-20             -9.3889330481381421e-27         1.1382936818469682e-20             12.09623784875747                      12.09623784875747                        12.09623784875747              1.7707954438345786e-21    1                             1                           0                     0.99998516445096464  1.2571691768026866e-05  5.7270696223034554e-06        1.25e-11                         1.25e-11                  
                       8.2136443123419291e-21                          37                                          125995.02149948651                  -2.6377722682267402e-07                -4.9400785610292799e-21             -6.6675222998889109e-27         6.4481409957858996e-21             9.0005643717380472                     12.09623784875747                        12.09623784875747              1.7655099840783298e-21    2                             2                           0                     0.99999150624612521  8.9435361799615129e-06  6.816986426642509e-06        1.382798483253551e-14              1.2513827984832535e-11       
                       5.8200975296169e-21                          43                                          98381.566223559857                  -1.6381602448791901e-07                -2.3935467827250314e-21             -4.7532930502449302e-27         4.0571444668688571e-21             7.0398776232208125                     12.09623784875747                        12.09623784875747              1.7629578160410934e-21    3                             3                           0                     0.99999459592111117  6.388158234833516e-06  7.01308687802907e-06        1.140848117733722e-14              1.2525236466009873e-11       
                       4.3192948092288163e-21                          49                                          76463.31834085958                   -1.0154381409955383e-07                -1.5008027203880856e-21             -3.1432501600458436e-27         2.5579362320318763e-21             5.5619040138015121                     12.09623784875747                        12.09623784875747              1.7613617204470996e-21    4                             4                           0                     0.99999654548965144  4.2365017479024565e-06  6.7687237816274903e-06        1.153008502612892e-14              1.2536766551036002e-11       
# Table End
