# ODT 1.0
# Table Start
# Title: mmArchive Data Table, Wed May 13 17:23:24 EDT 2015
# Columns: {Oxs_RungeKuttaEvolve:evolver:Total energy} {Oxs_RungeKuttaEvolve:evolver:Energy calc count} {Oxs_RungeKuttaEvolve:evolver:Max dm/dt} Oxs_RungeKuttaEvolve:evolver:dE/dt {Oxs_RungeKuttaEvolve:evolver:Delta E} Oxs_FixedZeeman::Energy Oxs_UniaxialAnisotropy:Left:Energy Oxs_UniaxialAnisotropy:Right:Energy Oxs_UniformExchange::Energy {Oxs_UniformExchange::Max Spin Ang} {Oxs_UniformExchange::Stage Max Spin Ang} {Oxs_UniformExchange::Run Max Spin Ang} Oxs_Demag::Energy    Oxs_TimeDriver::Iteration {Oxs_TimeDriver::Stage iteration} Oxs_TimeDriver::Stage Oxs_TimeDriver::mx   Oxs_TimeDriver::my   Oxs_TimeDriver::mz   {Oxs_TimeDriver::Last time step} {Oxs_TimeDriver::Simulation time}
# Units:                        J                                             {}                                         deg/ns                                 J/s                                   J                               J                            J                                   J                               J                              deg                                    deg                                      deg                           J                       {}                            {}                          {}                   {}                   {}                   {}                          s                                 s                
                       4.8082568230373047e-18                            1                                            2615.2626668725798                   -4.2332579278241885e-10                  0                              4.5535733339697387e-18           0                                  0                               0                               0                                      0                                        0                              2.5468348906756604e-19    0                             0                           0                     1                    0                    0                          0                                0                         
                       4.8082552859276199e-18                            7                                            2615.5214335109986                   -4.2297841420798029e-10                 -1.5371096847873505e-24            4.5535733312393556e-18           4.0313525407859899e-27                2.108687206041768e-27             2.6646883751012931e-26             0.006150057298994014                    0.006150057298994014                      0.006150057298994014            2.5468192190134072e-19    1                             1                           0                     0.99999999940038675 -4.774026653132068e-11  7.55263939049811e-11        3.6325223161467076e-15              3.6325223161467076e-15       
                       4.808249150147796e-18                            13                                           2616.0899763196912                   -4.2158152358085438e-10                 -6.1357798239806397e-24            4.5535732658258306e-18           1.0061731245643553e-25                5.2623557970986315e-26             6.6420934591256937e-25             0.030681481284415401                    0.030681481284415401                      0.030681481284415401            2.5467506687174852e-19    2                             2                           0                     0.99999998503506971 -2.3926770590736647e-10  3.7728179323808968e-10        1.453008926458683e-14              1.8162611580733538e-14       
                       4.8082248124586355e-18                            19                                           2611.0159974428957                   -4.1588327687482122e-10                 -2.4337689160467789e-23            4.5535721409213456e-18           1.7619034825896549e-24                9.209990974496323e-25             1.1554939107161422e-23             0.12716666965483964                    0.12716666965483964                      0.12716666965483964            2.5463843369560229e-19    3                             3                           0                     0.99999973799732544 -1.0144042966474054e-09  1.5786650976271815e-09        5.8120357058347322e-14              7.628296863908087e-14       
                       4.8081316174935733e-18                            25                                           2605.1328161412866                   -3.9217674038526427e-10                 -9.3194965061787951e-23            4.5535547787041419e-18           2.7427289877590424e-23                1.4298391958517145e-23             1.7220681682230014e-22             0.45953168488075602                    0.45953168488075602                      0.45953168488075602            2.5436290629077355e-19    4                             4                           0                     0.99999592511984881 -4.231303561059231e-09  6.2560818121746224e-09        2.3069356971279289e-13              3.0697653835187374e-13       
                       4.8081316174919647e-18                            26                                           2605.1328161412866                   -3.9217674031269887e-10                 -1.6090719626598098e-30            4.5535547787041419e-18           2.7427289877590424e-23                1.4298390349445109e-23             1.7220681682230014e-22             0.45953168488075602                    0.45953168488075602                      0.45953168488075602            2.5436290629077355e-19    5                             0                           1                     0.99999592511984881 -4.231303561059231e-09  6.2560818121746224e-09        0                                3.0697653835187374e-13       
                       4.8081301880589038e-18                            32                                           2604.3423779127688                   -3.9179440458059138e-10                 -1.4294330606125458e-24            4.5535543496532804e-18           2.8061956728884402e-23                1.4628516348045348e-23             1.7603956925447266e-22             0.46394629340050403                    0.46394629340050403                      0.46394629340050403            2.543571083632918e-19    6                             1                           1                     0.99999583089695399 -4.2839377508784589e-09  6.3288197501674474e-09        3.6466470888311045e-15              3.1062318544070485e-13       
                       4.8081244842712285e-18                            38                                           2600.5537822144224                   -3.9026469674406698e-10                 -5.7037876756567061e-24            4.553552588568608e-18           3.0667206935703414e-23                1.5983349614761829e-23             1.9171213970137651e-22             0.48669824731863404                    0.48669824731863404                      0.48669824731863404            2.5433353300636834e-19    7                             2                           1                     0.99999544414910935 -4.4950193819286475e-09  6.6193917544875305e-09        1.4586588355324418e-14              3.2520977379602928e-13       
                       4.8081018922701446e-18                            44                                           2576.3426505985635                   -3.8414683134876556e-10                 -2.2592001083359704e-23            4.5535448432262673e-18           4.2128811898512563e-23                2.1938194884952294e-23             2.5957041464495713e-22             0.58453389768340547                    0.58453389768340547                      0.58453389768340547            2.5423341162244911e-19    8                             3                           1                     0.99999374321189538 -5.3480259572004998e-09  7.7755697471239449e-09        5.8346353421297672e-14              3.8355612721732692e-13       
                       4.8080150889592925e-18                            50                                           2392.1558754984558                   -3.6010605633563909e-10                 -8.6803310852350933e-23            4.5535037674640174e-18           1.0300185223756623e-22                5.3424446880523606e-23             5.9633502955069922e-22             0.96325906946406537                    0.96325906946406537                      0.96325906946406537            2.5375856016660626e-19    9                             4                           1                     0.99998472265611726 -8.8964716649145691e-09  1.2300376738521184e-08        2.3338541368519069e-13              6.1694154090251766e-13       
                       4.8080150889653645e-18                            51                                           2392.1558754984558                   -3.6010605692720754e-10                  6.0720512399635027e-30            4.5535037674640174e-18           1.0300185223756623e-22                5.342445295257474e-23             5.9633502955069922e-22             0.96325906946406537                    0.96325906946406537                      0.96325906946406537            2.5375856016660626e-19    10                            0                           2                     0.99998472265611726 -8.8964716649145691e-09  1.2300376738521184e-08        0                                6.1694154090251766e-13       
                       4.8080136596645055e-18                            57                                           2388.5318118667028                   -3.5970674784721023e-10                 -1.4293008589932798e-24            4.5535029439145501e-18           1.0422375337373015e-22                5.4054228653102752e-23             6.0276132416444776e-22             0.96918249928819999                    0.96918249928819999                      0.96918249928819999            2.537496764437638e-19    11                            1                           2                     0.99998454179827079 -8.958678550146676e-09  1.2375969686294987e-08        3.9713131143765771e-15              6.2091285401689423e-13       
                       4.8080079582902678e-18                            63                                           2374.0307741416354                   -3.5811433900311493e-10                 -5.7013742374227634e-24            4.5534996123261407e-18           1.0916737655897412e-22                5.6601349953785063e-23             6.2864820356855375e-22             0.99262602842368319                    0.99262602842368319                      0.99262602842368319            2.5371392903404629e-19    12                            2                           2                     0.99998381015563209 -9.208115528765258e-09  1.2677862280250631e-08        1.5885252457506308e-14              6.367981064744005e-13       
                       4.8079854037947729e-18                            69                                           2316.6329466557659                   -3.5182858918568824e-10                 -2.2554495495406684e-23            4.5534857100525707e-18           1.2980566158071579e-22                6.7220390451655731e-23             7.3486957744822838e-22             1.0821671273766831                     1.0821671273766831                       1.0821671273766831             2.5356779811272112e-19    13                            3                           2                     0.99998075710859635 -1.0215562922734286e-08  1.3877724841481897e-08        6.3541009830025234e-14              7.0033911630442569e-13       
                       4.8079003222883375e-18                            75                                           2129.9426293817883                   -3.2874610520798107e-10                 -8.508150643544022e-23            4.553423322010884e-18           2.2259309035086501e-22                1.1469310188117173e-22             1.1823737503463157e-21             1.3635659712770685                     1.3635659712770685                       1.3635659712770685             2.5295734033487477e-19    14                            4                           2                     0.99996705621105741 -1.4331638076332191e-08  1.8481558665691357e-08        2.5028757146119856e-13              9.506266877656242e-13       
# Table End
