# ODT 1.0
# Table Start
# Title: mmArchive Data Table, Wed Jun 11 15:35:45 EDT 2014
# Columns: {Oxs_CGEvolve:evolve:Max mxHxm} {Oxs_CGEvolve:evolve:Total energy} {Oxs_CGEvolve:evolve:Delta E} {Oxs_CGEvolve:evolve:Bracket count} {Oxs_CGEvolve:evolve:Line min count} {Oxs_CGEvolve:evolve:Conjugate cycle count} {Oxs_CGEvolve:evolve:Cycle count} {Oxs_CGEvolve:evolve:Cycle sub count} {Oxs_CGEvolve:evolve:Energy calc count} Oxs_UniformExchange::Energy {Oxs_UniformExchange::Max Spin Ang} {Oxs_UniformExchange::Stage Max Spin Ang} {Oxs_UniformExchange::Run Max Spin Ang} Oxs_FixedZeeman::Energy Oxs_UniaxialAnisotropy::Energy Oxs_Demag::Energy    Oxs_MinDriver::Iteration {Oxs_MinDriver::Stage iteration} Oxs_MinDriver::Stage Oxs_MinDriver::mx    Oxs_MinDriver::my    Oxs_MinDriver::mz   
# Units:                 A/m                               J                                J                               {}                                   {}                                      {}                                     {}                                  {}                                     {}                                 J                              deg                                    deg                                      deg                              J                          J                        J                       {}                           {}                         {}                 {}                   {}                   {}           
                 9195804.5435409471                1.8701138879405959e-13             1.8701138879405959e-13              0                                    0                                       1                                      1                                   0                                      1                                 1.8163685621764542e-13             179.88849024474075                     179.88849024474075                       179.88849024474075              6.6003889815441242e-24         1.3333170446054043e-17       5.3611993993677364e-15    0                            0                          0                    0.00080199126925136149  0.0001083297790161691 -0.0010997116109857851
                 9196813.0491142608                1.8697417886331166e-13            -3.7209930747959187e-17              1                                    0                                       1                                      1                                   0                                      2                                 1.8159977429396e-13             179.90140312408403                     179.90140312408403                       179.90140312408403              6.1469940915430303e-24         1.3333171188872133e-17       5.3610713920157793e-15    1                            1                          0                    0.00080260429103468534  0.00010851636692859557 -0.0011004499895176081
                 9273935.5234509744                1.7953060948515895e-13            -7.4435693781527012e-15              2                                    0                                       1                                      1                                   0                                      3                                 1.7418251439302624e-13             179.96188651790811                     179.96188651790811                       179.96188651790811             -9.2745674193092055e-23         1.3333248265490152e-17       5.3347619366128904e-15    2                            2                          0                    0.00092243698867353356  0.00014759122583286126 -0.0012452726880439089
                 9115237.8311051521                1.7220288386291296e-13            -7.3277256222459782e-15              3                                    0                                       2                                      2                                   0                                      4                                 1.668835842913355e-13             179.94709592712312                     179.96188651790811                       179.96188651790811             -2.1124248618445895e-22         1.3333166602658694e-17       5.3059666162173018e-15    3                            3                          0                    0.0010470281891262069  0.00019209819697026839 -0.0013956650030264642
                 8962679.0208832361                1.6489663523799046e-13            -7.3062486249224946e-15              4                                    0                                       3                                      3                                   0                                      5                                 1.5960901537209188e-13             179.88121869517857                     179.96188651790811                       179.96188651790811             -3.4598890569338925e-22         1.3332938246069224e-17       5.2742872736414392e-15    4                            4                          0                    0.0011771583422823184  0.00024133922554506586 -0.0015529884336372445
                 8962679.0208832361                1.6489663523799046e-13             0                                4                                    0                                       4                                      4                                   0                                      6                                 1.5960901537209188e-13             179.88121869517857                     179.88121869517857                       179.96188651790811             -3.4598890569338925e-22         1.3332938246069224e-17       5.2742872736414392e-15    5                            0                          1                    0.0011771583422823184  0.00024133922554506586 -0.0015529884336372445
                 8810403.9890568033                1.5767112578853505e-13            -7.225509449455407e-15              5                                    0                                       4                                      4                                   0                                      7                                 1.5241789047162655e-13             179.92939642931694                     179.92939642931694                       179.96188651790811             -4.9059604508224913e-22         1.3332558957142467e-17       5.2399032485474105e-15    6                            1                          1                    0.001311175176175241  0.00029355101022746554 -0.0017154978267094325
                 8920567.1864967272                1.505750706483108e-13            -7.096055140224261e-15              6                                    0                                       5                                      5                                   0                                      8                                 1.4535870266275468e-13             179.91335555167896                     179.92939642931694                       179.96188651790811             -6.3834757570336107e-22         1.3332006070664112e-17       5.2030366178330378e-15    7                            2                          1                    0.0014474114769655456  0.00034688203720055868 -0.001881380183194372
                 8933801.6944787186                1.4384905654903983e-13            -6.726014099270989e-15              7                                    0                                       6                                      6                                   0                                      9                                 1.3867062043285269e-13             179.81476620839209                     179.92939642931694                       179.96188651790811             -7.7895658739339003e-22         1.3331264807880596e-17       5.1651056303358347e-15    8                            3                          1                    0.0015803746489883011  0.00039812348999139025 -0.0020441287852630903
                 8869391.3941720445                1.3743023775856423e-13            -6.4188187904755828e-15              8                                    0                                       7                                      7                                   0                                      10                                1.3229081519384425e-13             179.9248916466785                      179.92939642931694                       179.96188651790811             -9.1019952334572478e-22         1.3330297552964994e-17       5.1260931773665329e-15    9                            4                          1                    0.0017102950820822044  0.00044676546013759703 -0.0022041740804328597
                 8869391.3941720445                1.3743023775856423e-13             0                                8                                    0                                       8                                      8                                   0                                      11                                1.3229081519384425e-13             179.9248916466785                      179.9248916466785                        179.96188651790811             -9.1019952334572478e-22         1.3330297552964994e-17       5.1260931773665329e-15    10                           0                          2                    0.0017102950820822044  0.00044676546013759703 -0.0022041740804328597
                 8942344.2363761235                1.3127316627750585e-13            -6.1570714810583786e-15              9                                    0                                       8                                      8                                   0                                      12                                1.2617383527778976e-13             179.90941294564905                     179.9248916466785                        179.96188651790811             -1.0314789558843937e-21         1.3329067345277439e-17       5.0860029638497718e-15    11                           1                          2                    0.0018375456473356492  0.0004927161218099865 -0.0023620834911581728
                 9134528.2111786306                1.2547361054159967e-13            -5.799555735906177e-15              10                                   0                                       9                                      9                                   0                                      13                                1.2041451603542668e-13             179.76586081781829                     179.9248916466785                        179.96188651790811             -1.1411506444688979e-21         1.3327580709453645e-17       5.0457680666141982e-15    12                           2                          2                    0.0019600635136751872  0.00053530878239780753 -0.0025152789821073392
                 9074585.6705358364                1.2008802617679045e-13            -5.3855843648092205e-15              11                                   0                                       10                                     10                                  0                                      14                                1.1506850676202031e-13             179.93417644826448                     179.93417644826448                       179.96188651790811             -1.239957536514734e-21         1.3325870677267411e-17       5.0061947840504096e-15    13                           3                          2                    0.0020768214012639868  0.00057457758988724164 -0.0026622544744916484
                 8732925.7005520482                1.1494860884105061e-13            -5.1394173357398433e-15              12                                   0                                       11                                     11                                  0                                      15                                1.0996887314691336e-13             179.8583706865997                      179.93417644826448                       179.96188651790811             -1.3337472151008437e-21         1.3323909394148779e-17       4.9664131184903242e-15    14                           4                          2                    0.0021918608957156092  0.00061244838437432331 -0.0028077266231440359
                 8732925.7005520482                1.1494860884105061e-13             0                                12                                   0                                       12                                     12                                  0                                      16                                1.0996887314691336e-13             179.8583706865997                      179.8583706865997                        179.96188651790811             -1.3337472151008437e-21         1.3323909394148779e-17       4.9664131184903242e-15    15                           0                          3                    0.0021918608957156092  0.00061244838437432331 -0.0028077266231440359
                 8715938.6146779396                1.0989544128724112e-13            -5.0531675538095005e-15              13                                   0                                       12                                     12                                  0                                      17                                1.0495677632575443e-13             179.87484529651215                     179.87484529651215                       179.96188651790811             -1.4289000746779842e-21         1.3321637888266592e-17       4.9253447524984846e-15    16                           1                          3                    0.0023096893182446183  0.00065103141060243697 -0.0029569311361903154
                 8518100.2876421046                1.0511567628100507e-13            -4.7797650062360386e-15              14                                   0                                       13                                     13                                  0                                      18                                1.0021771346829837e-13             179.78109178820014                     179.87484529651215                       179.96188651790811             -1.525856344818974e-21         1.3319144930131495e-17       4.8846451936329146e-15    17                           2                          3                    0.0024271129345090335  0.0006899740028924764 -0.0031052465957049024
                 8590285.6218314711                1.0050273721085252e-13            -4.6129390701525568e-15              15                                   0                                       14                                     14                                  0                                      19                                9.5645815911653912e-14             179.83498341958688                     179.87484529651215                       179.96188651790811             -1.6310069480483625e-21         1.3316388660080432e-17       4.8436065415454681e-15    18                           3                          3                    0.0025475965691308523  0.00073123478457705338 -0.0032563663145342378
                 8973734.6742540095                9.6192876908805708e-14            -4.3098603020468126e-15              16                                   0                                       15                                     15                                  0                                      20                                9.1375941915214552e-14             179.83060882854005                     179.87484529651215                       179.96188651790811             -1.7450559418487762e-21         1.3313462034780242e-17       4.8036232766123165e-15    19                           4                          3                    0.0026682787399119174  0.00077456467408521391 -0.0034060486296472055
# Table End
