# ODT 1.0
# Table Start
# Title: mmArchive Data Table, Wed Jun 11 15:36:41 EDT 2014
# Columns: {Oxs_CGEvolve::Max mxHxm} {Oxs_CGEvolve::Total energy} {Oxs_CGEvolve::Delta E} {Oxs_CGEvolve::Bracket count} {Oxs_CGEvolve::Line min count} {Oxs_CGEvolve::Conjugate cycle count} {Oxs_CGEvolve::Cycle count} {Oxs_CGEvolve::Cycle sub count} {Oxs_CGEvolve::Energy calc count} Oxs_CubicAnisotropy::Energy Oxs_UniformExchange::Energy {Oxs_UniformExchange::Max Spin Ang} {Oxs_UniformExchange::Stage Max Spin Ang} {Oxs_UniformExchange::Run Max Spin Ang} Oxs_UZeeman::Energy  Oxs_UZeeman::B       Oxs_UZeeman::Bx      Oxs_UZeeman::By      Oxs_UZeeman::Bz      Oxs_Demag::Energy    Oxs_MinDriver::Iteration {Oxs_MinDriver::Stage iteration} Oxs_MinDriver::Stage Oxs_MinDriver::mx    Oxs_MinDriver::my    Oxs_MinDriver::mz   
# Units:              A/m                         J                          J                         {}                             {}                                {}                               {}                            {}                               {}                              J                           J                              deg                                    deg                                      deg                            J                 mT                   mT                   mT                   mT                     J                       {}                           {}                         {}                 {}                   {}                   {}           
              794588.21803792403          4.1830221976297675e-17       4.1830221976297675e-17        0                              0                                 1                                1                             0                                1                              0                           1.44e-17                        90                                     90                                       90                             0                    0                    0                    0                    0                    2.7430221976297675e-17    0                            0                          0                    0                    0                    0.10000000000000001
              794030.1476941834           4.181003860310109e-17      -2.0183373196584487e-20        1                              0                                 1                                1                             0                                2                             -9.9255168672128318e-26         1.4380687113412795e-17             89.936509378187054                     90                                       90                             0                    0                    0                    0                    0                    2.7429351588943461e-17    1                            1                          0                    9.2157184661267878e-26 -7.3274719625260335e-22  0.10001017137496485
              647169.25014752871          3.8089410619387472e-17      -3.7206279837136187e-18        2                              0                                 1                                1                             0                                3                             -3.9076815973892618e-21         1.0899216095803636e-17             76.979671189373065                     90                                       90                             0                    0                    0                    0                    0                    2.7194102205181225e-17    2                            2                          0                   -1.3530843112619095e-22  4.1300296516055827e-21  0.10140296611303094
              530823.2760676262           3.484384802773867e-17      -3.2455625916488e-18        3                              0                                 2                                2                             0                                4                             -1.4977271377893005e-20         8.1273646239351558e-18             63.096610387768081                     90                                       90                             0                    0                    0                    0                    0                    2.6731460675181409e-17    3                            3                          0                    8.6042284408449631e-23 -4.4630965589931294e-21  0.10127288101304718
              422805.07421301585          3.2302205400065582e-17      -2.5416426276730912e-18        4                              0                                 3                                3                             0                                5                             -2.9565232954043532e-20         6.3743636794420898e-18             49.638463966575493                     90                                       90                             0                    0                    0                    0                    0                    2.5957406953577534e-17    4                            4                          0                    3.8025138593411609e-22 -6.0840221749458575e-21  0.098736524716376325
              454474.92526820523          3.2302205400065582e-17       0                          4                              0                                 4                                4                             0                                6                             -2.9565232954043532e-20         6.3743636794420898e-18             49.638463966575493                     49.638463966575493                       90                            -2.9387358770557188e-39  50.002499937503131   50.000000000000007   0.5                  0                    2.5957406953577534e-17    5                            0                          1                    3.8025138593411609e-22 -6.0840221749458575e-21  0.098736524716376325
              392919.98346751923          3.0227342509883852e-17      -2.0748628901817277e-18        5                              0                                 4                                4                             0                                7                             -4.3510920771507738e-20         5.6171726967102536e-18             39.012007164583302                     49.638463966575493                       90                            -2.455836048321359e-19  50.002499937503131   50.000000000000007   0.5                  0                    2.4899264338777241e-17    6                            1                          1                    0.015348829885532855  1.4541647563562745e-05  0.093676377199184729
              366572.44846844627          2.8516372486111203e-17      -1.7109700237726492e-18        6                              0                                 5                                5                             0                                8                             -5.6408578625417286e-20         5.4713171360906315e-18             31.655469458483481                     49.638463966575493                       90                            -5.3729470814908113e-19  50.002499937503131   50.000000000000007   0.5                  0                    2.363875863679507e-17    7                            2                          1                    0.033580608756516979  3.1050280058698802e-05  0.086659126803180914
              337287.30358881206          2.7001330172346358e-17      -1.5150423137648442e-18        7                              0                                 6                                6                             0                                9                             -6.8429306640314808e-20         5.5749172172115573e-18             34.890846425749302                     49.638463966575493                       90                            -8.5780804622945377e-19  50.002499937503131   50.000000000000007   0.5                  0                    2.2352650308004571e-17    8                            3                          1                    0.053612517353556779  4.855357840741692e-05  0.07900165239270876
              317221.5130082898           2.5473954768160812e-17      -1.527375404185546e-18        8                              0                                 7                                7                             0                                10                            -8.0929262107148113e-20         5.7077274333120015e-18             39.922269546598905                     49.638463966575493                       90                            -1.2128850230133707e-18  50.002499937503131   50.000000000000007   0.5                  0                    2.106004161996933e-17    9                            4                          1                    0.075804635980736765  6.7795759890053426e-05  0.071117759532721245
              349858.85737283272          2.4261069745147441e-17      -1.2128850230133707e-18        8                              0                                 8                                8                             0                                11                            -8.0929262107148113e-20         5.7077274333120015e-18             39.922269546598905                     39.922269546598905                       90                            -2.4257700460267415e-18  100.00499987500626   100.00000000000001   1                    0                    2.106004161996933e-17    10                           0                          2                    0.075804635980736765  6.7795759890053426e-05  0.071117759532721245
              336819.16297797719          2.1802240336902766e-17      -2.4588294082446752e-18        9                              0                                 8                                8                             0                                12                            -9.8646498802421829e-20         5.7441008588825489e-18             43.137072588623546                     43.137072588623546                       90                            -3.7352135226482554e-18  100.00499987500626   100.00000000000001   1                    0                    1.9891999499470894e-17    11                           1                          2                    0.11672434677400324  0.00010758087547163462  0.064013685102690343
              322864.09762673749          1.9237310686751498e-17      -2.5649296501512689e-18        10                             0                                 9                                9                             0                                13                            -1.1965230171448525e-19         5.6880668264012036e-18             45.387468155476732                     45.387468155476732                       90                            -5.0936232866268714e-18  100.00499987500626   100.00000000000001   1                    0                    1.8762519448691649e-17    12                           2                          2                    0.15917419307375946  0.00015346333302574381  0.057142080817190861
              309829.92313152575          1.6587916853604793e-17      -2.6493938331467039e-18        11                             0                                 10                               10                            0                                14                            -1.4339994934801082e-19         5.5504359255992273e-18             46.892579177461464                     46.892579177461464                       90                            -6.4935040457129122e-18  100.00499987500626   100.00000000000001   1                    0                    1.767438492306649e-17    13                           3                          2                    0.20291992029978803  0.00020811287404319881  0.050489494682562044
              475566.89552808926          1.3945177056112677e-17      -2.6427397974921167e-18        12                             0                                 11                               11                            0                                15                            -1.6890644026191959e-19         5.3895492223408279e-18             47.995012988845424                     47.995012988845424                       90                            -7.9170856427356149e-18  100.00499987500626   100.00000000000001   1                    0                    1.6641619916769383e-17    14                           4                          2                    0.24740618914075035  0.00027371947375760499  0.044104175378872068
              431760.24376788229          2.1862218903732489e-17       7.9170418476198141e-18        12                             0                                 12                               12                            0                                16                            -1.6890644026191959e-19         5.3895492223408279e-18             47.995012988845424                     47.995012988845424                       90                            -4.3795115801216803e-23  0.5                  0                    0.5                  0                    1.6641619916769383e-17    15                           0                          3                    0.24740618914075035  0.00027371947375760499  0.044104175378872068
              732438.43480412918          2.1275536786635188e-17      -5.8668211709730151e-19        13                             0                                 12                               12                            0                                17                            -1.7112965477037889e-19         5.4467666296806096e-18             48.567202284776457                     48.567202284776457                       90                            -4.715577289406119e-23  0.5                  0                    0.5                  0                    1.5999946967497853e-17    16                           1                          3                    0.25036473526463371  0.00029472358058788239  0.04022731531835317
              609742.67055236176          2.0788182556387933e-17      -4.8735423024725612e-19        14                             0                                 13                               13                            0                                18                            -1.7229855473965333e-19         5.3176025760771191e-18             48.888853339987072                     48.888853339987072                       90                            -4.9210139919847975e-23  0.5                  0                    0.5                  0                    1.5642927745190388e-17    17                           2                          3                    0.25208822773269363  0.00030756337449904978  0.038126929104267709
              422259.82022768917          2.0767860480024366e-17      -2.0322076363568343e-20        14                             1                                 13                               13                            0                                19                            -1.7209406297429878e-19         5.2405110621429099e-18             48.835276600446107                     48.888853339987072                       90                            -4.8876535829080435e-23  0.5                  0                    0.5                  0                    1.5699492357391584e-17    18                           3                          3                    0.25181386719759158  0.00030547834893175266  0.038481580230137855
              440586.09428002982          2.0120923766910538e-17      -6.4693671311382662e-19        15                             1                                 13                               14                            1                                20                            -1.7364182940573042e-19         5.1415274228621366e-18             49.252649437931979                     49.252649437931979                       90                            -5.2176725390058005e-23  0.5                  0                    0.5                  0                    1.5153090350179524e-17    19                           4                          3                    0.25442795477350144  0.00032610453368786248  0.035170169268301854
              500493.87174899806          2.8262670496387978e-17       8.1417467294774372e-18        15                             1                                 14                               15                            0                                21                            -1.7364182940573042e-19         5.1415274228621366e-18             49.252649437931979                     49.252649437931979                       90                             8.1416945527520478e-18  100.00000000000001  -100.00000000000001   0                    0                    1.5153090350179524e-17    20                           0                          4                    0.25442795477350144  0.00032610453368786248  0.035170169268301854
              573673.80392125016          2.7278253131066054e-17      -9.8441736532192405e-19        16                             1                                 14                               15                            0                                22                            -1.6440802900611621e-19         5.1541647034627407e-18             49.659213286970555                     49.659213286970555                       90                             7.5355237420649129e-18  100.00000000000001  -100.00000000000001   0                    0                    1.4752972714544516e-17    21                           1                          4                    0.23548511693952848  0.00031707855545410626  0.032835670977085063
              663598.69028233306          2.7200827734514769e-17      -7.7425396551283578e-20        17                             1                                 14                               15                            0                                23                            -1.6333801520376311e-19         5.1994908403378458e-18             49.708388468999374                     49.708388468999374                       90                             7.4596507399338061e-18  100.00000000000001  -100.00000000000001   0                    0                    1.4705024169446879e-17    22                           2                          4                    0.23311408562293143  0.00031591470891268901  0.03253862959547623
              660494.42702483002          2.6354408924466866e-17      -8.4641881004790141e-19        18                             1                                 15                               16                            0                                24                            -1.5661433616810668e-19         5.175903641872816e-18             50.057369428301442                     50.057369428301442                       90                             6.9461186022085781e-18  100.00000000000001  -100.00000000000001   0                    0                    1.4389001016553578e-17    23                           3                          4                    0.21706620631901805  0.00030873275663088337  0.030710324258131923
              644145.19227557932          2.553320820434649e-17      -8.2120072012037619e-19        19                             1                                 16                               17                            0                                25                            -1.5076996348195541e-19         5.1636644454823206e-18             50.253921907728056                     50.253921907728056                       90                             6.4312647024419793e-18  100.00000000000001  -100.00000000000001   0                    0                    1.4089049019904146e-17    24                           4                          4                    0.20097702195131181  0.00030176922661073041  0.028977877564028202
              594147.45551236498          1.9101943501904512e-17      -6.4312647024419793e-18        19                             1                                 17                               18                            0                                26                            -1.5076996348195541e-19         5.1636644454823206e-18             50.253921907728056                     50.253921907728056                       90                             0                    0                    0                    0                    0                    1.4089049019904146e-17    25                           0                          5                    0.20097702195131181  0.00030176922661073041  0.028977877564028202
              724938.31824100576          1.8816165985188907e-17      -2.8577751671560576e-19        20                             1                                 17                               18                            0                                27                            -1.5235065412978185e-19         5.2143957647987185e-18             50.457166353487864                     50.457166353487864                       90                             0                    0                    0                    0                    0                    1.3754120874519968e-17    26                           1                          5                    0.20303220163248112  0.00029723428818112383  0.027084835350828659
              338627.17589114374          1.8707410648721427e-17      -1.0875533646747994e-19        20                             2                                 17                               18                            0                                28                            -1.517998678312485e-19         4.9958948178920076e-18             50.389218024518058                     50.457166353487864                       90                             0                    0                    0                    0                    0                    1.3863315698660666e-17    27                           2                          5                    0.20234161305142292  0.00029892951289005798  0.027742256027674994
              354498.49992143357          1.8225868937033356e-17      -4.8154171168807163e-19        21                             2                                 17                               19                            1                                29                            -1.5351836223560186e-19         4.9202845943157158e-18             50.536464311668674                     50.536464311668674                       90                             0                    0                    0                    0                    0                    1.3459102704953241e-17    28                           3                          5                    0.20477870435373857  0.00029336257443979578  0.025458662242492602
              380161.25332708721          1.7524356356686918e-17      -7.0151258034643735e-19        22                             2                                 17                               19                            1                                30                            -1.5533356563088596e-19         4.8364614670643869e-18             50.706092174721888                     50.706092174721888                       90                             0                    0                    0                    0                    0                    1.2843228455253417e-17    29                           4                          5                    0.20841941369966274  0.00028396580368178335  0.021757950941377769
              388894.2574019563           1.7522084630257464e-17      -2.2717264294542667e-21        22                             2                                 18                               20                            0                                31                            -1.5533356563088596e-19         4.8364614670643869e-18             50.706092174721888                     50.706092174721888                       90                            -2.2717264294542671e-21  25.000000000000004   0                    25.000000000000004   0                    1.2843228455253417e-17    30                           0                          6                    0.20841941369966274  0.00028396580368178335  0.021757950941377769
              767771.03615414177          1.7254455636659098e-17      -2.6762899359836441e-19        23                             2                                 18                               20                            0                                32                            -1.5706758614731872e-19         4.9892063751957232e-18             50.593016072523589                     50.706092174721888                       90                            -1.7254268353518395e-20  25.000000000000004   0                    25.000000000000004   0                    1.2439571115964212e-17    31                           1                          6                    0.21083901911803202  0.0021567835441897989  0.019678970133217615
              515766.17635003495          1.7216756997526918e-17      -3.7698639132180122e-20        23                             3                                 18                               20                            0                                33                            -1.5662394602816475e-19         4.8462732067985153e-18             50.628640811406932                     50.706092174721888                       90                            -1.3301441031809586e-20  25.000000000000004   0                    25.000000000000004   0                    1.2540409177788377e-17    32                           2                          6                    0.21022337549724762  0.0016626801289761981  0.02022535921409082
              458920.92011595983          1.6191140235091325e-17      -1.0256167624355943e-18        24                             3                                 18                               21                            1                                34                            -1.5881330581719255e-19         4.738721837298537e-18             50.291910929907949                     50.706092174721888                       90                            -4.831805936384945e-20  25.000000000000004   0                    25.000000000000004   0                    1.165954976297383e-17    33                           3                          6                    0.21526876997088074  0.0060397574204811809  0.015552801304610911
              458559.61742410081          1.6185438892625721e-17      -5.7013424656016441e-21        25                             3                                 18                               21                            1                                35                            -1.5881851363420691e-19         4.7384056789834734e-18             50.288816558767188                     50.706092174721888                       90                            -4.8538511426001851e-20  25.000000000000004   0                    25.000000000000004   0                    1.1654390238702459e-17    34                           4                          6                    0.21529763756641801  0.0060673139282502305  0.015523710854728829
# Table End
