# ODT 1.0
# Table Start
# Title: mmArchive Data Table, Wed Aug 17 23:55:24 EDT 2011
# Columns: {Oxs_CGEvolve::Max mxHxm} {Oxs_CGEvolve::Total energy} {Oxs_CGEvolve::Delta E} {Oxs_CGEvolve::Bracket count} {Oxs_CGEvolve::Line min count} {Oxs_CGEvolve::Conjugate cycle count} {Oxs_CGEvolve::Cycle count} {Oxs_CGEvolve::Cycle sub count} {Oxs_CGEvolve::Energy calc count} Oxs_CubicAnisotropy::Energy Oxs_UniformExchange::Energy {Oxs_UniformExchange::Max Spin Ang} {Oxs_UniformExchange::Stage Max Spin Ang} {Oxs_UniformExchange::Run Max Spin Ang} Oxs_UZeeman::Energy  Oxs_UZeeman::B       Oxs_UZeeman::Bx      Oxs_UZeeman::By      Oxs_UZeeman::Bz      Oxs_Demag::Energy    Oxs_MinDriver::Iteration {Oxs_MinDriver::Stage iteration} Oxs_MinDriver::Stage Oxs_MinDriver::mx    Oxs_MinDriver::my    Oxs_MinDriver::mz   
# Units:              A/m                         J                          J                         {}                             {}                                {}                               {}                            {}                               {}                              J                           J                              deg                                    deg                                      deg                            J                 mT                   mT                   mT                   mT                     J                       {}                           {}                         {}                 {}                   {}                   {}           
              794588.21803782275          4.183022197630472e-17       4.183022197630472e-17        0                              0                                 1                                1                             1                                1                              0                           1.44e-17                        90                                     90                                       90                             0                    0                    0                    0                    0                    2.7430221976304713e-17    0                            0                          0                    0                    0                    0.099999999999999992
              794030.14769408235          4.1810038603108135e-17      -2.0183373196584935e-20        1                              0                                 1                                1                             1                                2                             -9.9255168698373456e-26         1.4380687113412795e-17             89.936509378187068                     90                                       90                             0                    0                    0                    0                    0                    2.7429351588950512e-17    1                            1                          0                   -3.1086244689504382e-22  6.2300387071445581e-18  0.10001017137496469
              790067.97732058214          4.1669128007496491e-17      -1.409105956116435e-19        2                              0                                 1                                1                             1                                3                             -6.3519695721917424e-24         1.4245955872794607e-17             89.491650991600906                     90                                       90                             0                    0                    0                    0                    0                    2.7423178486671452e-17    2                            2                          0                   -7.1054273576010015e-22 -3.5470293369144201e-18  0.10008051606659307
              796974.4438925212           4.1669128007496491e-17       0                          2                              0                                 2                                2                             2                                4                             -6.3519695721917424e-24         1.4245955872794607e-17             89.491650991600906                     89.491650991600906                       90                            -9.4039548065783001e-38  50.002499937503124   50                   0.5                  0                    2.7423178486671452e-17    3                            0                          1                   -7.1054273576010015e-22 -3.5470293369144201e-18  0.10008051606659307
              796430.73718721396          4.1648518585171623e-17      -2.0609422324868451e-20        3                              0                                 2                                2                             0                                5                             -8.0278394360525514e-24         1.4226938491454532e-17             89.42862304195107                      89.491650991600906                       90                            -6.9708763505377014e-22  50.002499937503124   50                   0.5                  0                    2.7422285209191579e-17    4                            1                          1                    4.3567541516636272e-05  4.3567422424484901e-08  0.1000903798005939 
              792570.75528389798          4.1504617906649406e-17      -1.4390067852221672e-19        4                              0                                 2                                2                             0                                6                             -2.5414821655239197e-23         1.4094269197034607e-17             88.987105107564048                     89.491650991600906                       90                            -5.5766878521585796e-21  50.002499937503124   50                   0.5                  0                    2.7415950812288616e-17    5                            2                          1                    0.00034853950546840463  3.4852915068331641e-07  0.1001585740510243 
              801514.14603499603          4.149904121879725e-17      -5.5766878521554349e-21        4                              0                                 3                                3                             1                                7                             -2.5414821655239197e-23         1.4094269197034607e-17             88.987105107564048                     88.987105107564048                       90                            -1.1153375704317159e-20  100.00499987500625   100                  1                    0                    2.7415950812288616e-17    6                            0                          2                    0.00034853950546840463  3.4852915068331641e-07  0.1001585740510243 
              800991.45533556922          4.1476672860219977e-17      -2.2368358577273931e-20        5                              0                                 3                                3                             0                                8                             -2.8734334810535888e-23         1.4075593107993087e-17             88.924746365657327                     88.987105107564048                       90                            -1.3927733441420334e-20  100.00499987500625   100                  1                    0                    2.7415036220003124e-17    7                            1                          2                    0.00043523731723283797  4.3528115482918106e-07  0.10016810202156372
              797280.48444183008          4.1320443886467642e-17      -1.562289737523348e-19        6                              0                                 3                                3                             0                                9                             -5.8070083637957315e-23         1.3945301036156549e-17             88.488001176605792                     88.987105107564048                       90                            -3.334815660432672e-20  100.00499987500625   100                  1                    0                    2.7408549076999058e-17    8                            2                          2                    0.0010421194686654033  1.0425219806046243e-06  0.1002339429645433 
              781423.75996156782          4.1353791876268455e-17       3.3347989800813614e-20        6                              0                                 4                                4                             1                                10                            -5.8070083637957315e-23         1.3945301036156549e-17             88.488001176605792                     88.488001176605792                       90                            -1.6680351689634198e-25  0.5                  0                    0.5                  0                    2.7408549076999058e-17    9                            0                          3                    0.0010421194686654033  1.0425219806046243e-06  0.1002339429645433 
              780833.17907096038          4.1333906716674178e-17      -1.9885159594277741e-20        7                              0                                 4                                4                             0                                11                            -6.2891520398169419e-23         1.3926384046869988e-17             88.424224443656612                     88.488001176605792                       90                            -1.7396674242401187e-25  0.5                  0                    0.5                  0                    2.7407585735291329e-17    10                           1                          3                    0.0010422916100751188  1.0872921401427448e-06  0.10024343494603206
              776643.95101590187          4.1195089176895283e-17      -1.3881753977889462e-19        8                              0                                 4                                4                             0                                12                            -1.0219519063170425e-22         1.3794432502823777e-17             87.977365766938192                     88.488001176605792                       90                            -2.241059619051438e-25  0.5                  0                    0.5                  0                    2.7400759093368101e-17    11                           2                          3                    0.0010434949647828229  1.4006622619071094e-06  0.10030900531381183
              791504.99204012589          4.1228481239874301e-17       3.3392062979017946e-20        8                              0                                 5                                5                             1                                13                            -1.0219519063170425e-22         1.3794432502823777e-17             87.977365766938192                     87.977365766938192                       90                             3.3391838873050271e-20  100                 -100                  0                    0                    2.7400759093368101e-17    12                           0                          4                    0.0010434949647828229  1.4006622619071094e-06  0.10030900531381183
              790961.76255602506          4.1206264120544437e-17      -2.2217119329863568e-20        9                              0                                 5                                5                             0                                14                            -1.0816914027856343e-22         1.3775998755657231e-17             87.914514888630606                     87.977365766938192                       90                             3.0589706399186043e-20  100                 -100                  0                    0                    2.7399783827628299e-17    13                           1                          4                    0.00095592832497456124  1.4011001901648797e-06  0.10031809618372793
              787107.52131210477          4.1051098352214567e-17      -1.5516576832987022e-19        10                             0                                 5                                5                             0                                15                            -1.5610482421598018e-22         1.3647409765548459e-17             87.473932555595809                     87.977365766938192                       90                             1.0974797330034346e-20  100                 -100                  0                    0                    2.7392869894160293e-17    14                           2                          4                    0.00034296241656357306  1.4041542561520146e-06  0.10038086344260584
              771387.87350191106          4.1040123554884536e-17      -1.0974797330030928e-20        10                             0                                 6                                6                             1                                16                            -1.5610482421598018e-22         1.3647409765548459e-17             87.473932555595809                     87.473932555595809                       90                             0                    0                    0                    0                    0                    2.7392869894160293e-17    15                           0                          5                    0.00034296241656357306  1.4041542561520146e-06  0.10038086344260584
              770775.55524420808          4.1020410242189677e-17      -1.9713312694859169e-20        11                             0                                 6                                6                             0                                17                            -1.6408266403189044e-22         1.3628734866788201e-17             87.409777023698737                     87.473932555595809                       90                             0                    0                    0                    0                    0                    2.7391839458065508e-17    16                           1                          5                    0.00034302100936378475  1.4045966277053593e-06  0.10038988736409009
              766434.55053856911          4.0882800702359034e-17      -1.3760953983064321e-19        12                             0                                 6                                6                             0                                18                            -2.2548247649965087e-22         1.3498485187226528e-17             86.960265092360586                     87.473932555595809                       90                             0                    0                    0                    0                    0                    2.7384540997609004e-17    17                           2                          5                    0.00034343059567415587  1.4076817154993932e-06  0.10045216643507446
              786082.83511234331          4.0882789440905306e-17      -1.1261453728302424e-23        12                             0                                 7                                7                             1                                19                            -2.2548247649965087e-22         1.3498485187226528e-17             86.960265092360586                     86.960265092360586                       90                            -1.1261453724014221e-23  25                   0                    25                   0                    2.7384540997609004e-17    18                           0                          6                    0.00034343059567415587  1.4076817154993932e-06  0.10045216643507446
              785472.23487898184          4.0863640160061601e-17      -1.9149280843704494e-20        13                             0                                 7                                7                             0                                20                            -2.348128129902127e-22         1.3480401594098188e-17             86.89879974872666                      86.960265092360586                       90                            -2.8931614836119304e-23  25                   0                    25                   0                    2.7383502310391244e-17    19                           1                          6                    0.00034348810538714094  3.6164518545138886e-06  0.10046072378893582
              781143.94381375203          4.0729962015641314e-17      -1.3367814442028754e-19        14                             0                                 7                                7                             0                                21                            -3.0540598061252351e-22         1.3354270895907865e-17             86.468138447690734                     86.960265092360586                       90                            -1.5261672065961319e-22  25                   0                    25                   0                    2.7376149142434718e-17    20                           2                          6                    0.00034389013225326814  1.9077090082443147e-05  0.1005197726229089 
# Table End
