# ODT 1.0
# Table Start
# Title: mmArchive Data Table, Wed Jun 16 18:43:02 EDT 2010
# Columns: {Oxs_RungeKuttaEvolve:evolve:Total energy} {Oxs_RungeKuttaEvolve:evolve:Energy calc count} {Oxs_RungeKuttaEvolve:evolve:Max dm/dt} Oxs_RungeKuttaEvolve:evolve:dE/dt {Oxs_RungeKuttaEvolve:evolve:Delta E} Oxs_ExchangePtwise::Energy {Oxs_ExchangePtwise::Max Spin Ang} {Oxs_ExchangePtwise::Stage Max Spin Ang} {Oxs_ExchangePtwise::Run Max Spin Ang} Oxs_UniaxialAnisotropy::Energy Oxs_UZeeman::Energy  Oxs_UZeeman::B       Oxs_UZeeman::Bx      Oxs_UZeeman::By      Oxs_UZeeman::Bz      Oxs_Demag::Energy    Oxs_TimeDriver::Iteration {Oxs_TimeDriver::Stage iteration} Oxs_TimeDriver::Stage Oxs_TimeDriver::mx   Oxs_TimeDriver::my   Oxs_TimeDriver::mz   {Oxs_TimeDriver::Last time step} {Oxs_TimeDriver::Simulation time}
# Units:                       J                                            {}                                        deg/ns                                 J/s                                  J                               J                             deg                                   deg                                     deg                                 J                         J                 mT                   mT                   mT                   mT                     J                       {}                            {}                          {}                   {}                   {}                   {}                          s                                 s                
                       1.2630975940214102e-15                          1                                           4188.0445881553069                  -4.255803693317837e-06                 0                                0                              0                                     0                                       0                                  1.0649600000000001e-15       0                    0                    0                    0                    0                    1.9813759402141012e-16    0                             0                           0                     0.99498743713555371  0.099999999712112361  0                          0                                0                         
                       1.2630879428199359e-15                          7                                           4188.0453314913893                  -4.2535990573159591e-06                -9.6512014743083159e-21              4.2477327111851678e-24            0.0063399312054398197                   0.0063399312054398197                     0.0063399312054398197                1.0649599989080237e-15       0                    0                    0                    0                    0                    1.9812793966417945e-16    1                             1                           0                     0.99498753226995584  0.099999044587670075  1.9192675953121523e-06        2.2683617139292283e-15              2.2683617139292283e-15       
                       1.2630493879818224e-15                          13                                          4188.0371485881551                  -4.244792661238361e-06                -3.8554838113499534e-20              1.0600440779275557e-22            0.03167108005248883                   0.03167108005248883                     0.03167108005248883                1.0649599727228136e-15       0                    0                    0                    0                    0                    1.980893092546009e-16    2                             2                           0                     0.9949878961326919   0.099995219242410338  9.5939957481974072e-06        9.0734468557169134e-15              1.1341808569646141e-14       
                       1.0388985147410496e-15                          14                                          4224.9213163312861                  -4.2714416010633808e-06                -2.2415087324077288e-16              1.0600440779275557e-22            0.03167108005248883                   0.03167108005248883                     0.03167108005248883                1.0649599727228136e-15      -2.2415087324077288e-16  50.000000000000007   50.000000000000007   0                    0                    1.980893092546009e-16    3                             0                           1                     0.9949878961326919   0.099995219242410338  9.5939957481974072e-06        0                                1.1341808569646141e-14       
                       1.0388889126648092e-15                          20                                          4224.8984346317029                  -4.2691936760490941e-06                -9.6020762403177312e-21              1.5213317977098179e-22            0.037941228591081531                   0.037941228591081531                     0.037941228591081531                1.064959960798535e-15      -2.2415091045360699e-16  50.000000000000007   50.000000000000007   0                    0                    1.9807971018670147e-16    4                             1                           1                     0.99498806131750239  0.099993482465676131  1.3077578957155365e-05        2.2485625858351682e-15              1.359037115548131e-14       
                       1.0388505548642053e-15                          26                                          4224.7957636437604                  -4.2602143222894485e-06                -3.8357800603828746e-20              4.1937269053374815e-22            0.062993182405666814                   0.062993182405666814                     0.062993182405666814                1.064959891539386e-15      -2.2415105569127793e-16  50.000000000000007   50.000000000000007   0                    0                    1.9804129964340672e-16    5                             2                           1                     0.99498870601597078  0.099986526782388327  2.7007181589599325e-05        8.9942503433406726e-15              2.2584621498821982e-14       
                       8.1469949917292746e-16                          27                                          4261.6988620335351                  -4.302376579691275e-06                -2.2415105569127793e-16              4.1937269053374815e-22            0.062993182405666814                   0.062993182405666814                     0.062993182405666814                1.064959891539386e-15      -4.4830211138255587e-16  100.00000000000001   100.00000000000001   0                    0                    1.9804129964340672e-16    6                             0                           2                     0.99498870601597078  0.099986526782388327  2.7007181589599325e-05        0                                2.2584621498821982e-14       
                       8.146899110504281e-16                          33                                          4261.651869823866                   -4.3000848394387024e-06                -9.5881224993760145e-21              5.0601035816429121e-22            0.06919450564030892                   0.06919450564030892                     0.06919450564030892                1.0649598689374498e-15      -4.4830221692912474e-16  100.00000000000001   100.00000000000001   0                    0                    1.980317530317448e-16    7                             1                           2                     0.99498894027238249  0.099984019731993279  3.2026637133070181e-05        2.2291579737445197e-15              2.4813779472566502e-14       
                       8.1465160960486652e-16                          39                                          4261.4527715742397                  -4.2909304612069913e-06                -3.8301445561554454e-20              9.3329227836247109e-22            0.093971075059659737                   0.093971075059659737                     0.093971075059659737                1.0649597571180995e-15      -4.4830263215492298e-16  100.00000000000001   100.00000000000001   0                    0                    1.979935513494116e-16    8                             2                           2                     0.99498986184952709  0.099973978988398035  5.2096933350714347e-05        8.9166318949780787e-15              3.3730411367544578e-14       
                       1.2629542417597895e-15                          40                                          4188.0970928315828                  -4.2231294641161142e-06                 4.4830263215492298e-16              9.3329227836247109e-22            0.093971075059659737                   0.093971075059659737                     0.093971075059659737                1.0649597571180995e-15       0                    0                    0                    0                    0                    1.979935513494116e-16    9                             0                           3                     0.99498986184952709  0.099973978988398035  5.2096933350714347e-05        0                                3.3730411367544578e-14       
                       1.2629446647748032e-15                          46                                          4188.0813863940339                  -4.2209429441734135e-06                -9.5769849862341008e-21              1.0625757500543571e-21            0.10026826085141759                   0.10026826085141759                     0.10026826085141759                1.0649597235996612e-15       0                    0                    0                    0                    0                    1.9798387859939204e-16    10                            1                           3                     0.99498993276354408  0.099973011564186059  5.400986575617603e-05        2.2683332762892146e-15              3.5998744643833798e-14       
                       1.2629064063911439e-15                          52                                          4188.0076848870058                  -4.2122089943610303e-06                -3.8258383659327322e-20              1.6627954198004271e-21            0.12542795665595216                   0.12542795665595216                     0.12542795665595216                1.064959567906098e-15       0                    0                    0                    0                    0                    1.9794517568962617e-16    11                            2                           3                     0.99499019993744242  0.099969137077712933  6.1659241229645607e-05        9.0733331051568584e-15              4.5072077748990653e-14       
                       1.711209190874958e-15                          53                                          4115.6278705391533                  -4.2084613465005302e-06                 4.4830278448381409e-16              1.6627954198004271e-21            0.12542795665595216                   0.12542795665595216                     0.12542795665595216                1.064959567906098e-15       4.4830278448381409e-16  100.00000000000001  -100.00000000000001   0                    0                    1.9794517568962617e-16    12                            0                           4                     0.99499019993744242  0.099969137077712933  6.1659241229645607e-05        0                                4.5072077748990653e-14       
                       1.7111994789918209e-15                          59                                          4115.6420634150372                  -4.2063803060355352e-06                -9.7118831372064299e-21              1.836704760281498e-21            0.13182327590342474                   0.13182327590342474                     0.13182327590342474                1.0649595232198899e-15       4.4830274004561559e-16  100.00000000000001  -100.00000000000001   0                    0                    1.9793537902155505e-16    13                            1                           4                     0.99499010130862819  0.099969768413148627  6.0357783287073574e-05        2.3082747757647694e-15              4.7380352524755426e-14       
                       1.7111606794545335e-15                          65                                          4115.6882311789313                  -4.1980679476141154e-06                -3.8799537287362916e-20              2.6178879166382474e-21            0.15737519482882145                   0.15737519482882145                     0.15737519482882145                1.0649593221944682e-15       4.4830255432585401e-16  100.00000000000001  -100.00000000000001   0                    0                    1.9789618504629462e-16    14                            2                           4                     0.99498968911100394  0.099972295680994319  5.5153045117881658e-05        9.2330991030590774e-15              5.6613451627814499e-14       
                       1.2628581251286795e-15                          66                                          4187.7856794221871                  -4.2011447009029552e-06                -4.4830255432585401e-16              2.6178879166382474e-21            0.15737519482882145                   0.15737519482882145                     0.15737519482882145                1.0649593221944682e-15       0                    0                    0                    0                    0                    1.9789618504629462e-16    15                            0                           5                     0.99498968911100394  0.099972295680994319  5.5153045117881658e-05        0                                5.6613451627814499e-14       
                       1.2628485972903471e-15                          72                                          4187.759082261513                   -4.1989702220118404e-06                -9.5278383323999751e-21              2.8306204841945953e-21            0.16364336008426331                   0.16364336008426331                     0.16364336008426331                1.0649592669757331e-15       0                    0                    0                    0                    0                    1.9788649969412982e-16    16                            1                           5                     0.99498974312884747  0.099971326897643556  5.7065683023993135e-05        2.268501954787421e-15              5.8881953582601918e-14       
                       1.2628105352238744e-15                          78                                          4187.6420064819504                  -4.1902844252699715e-06                -3.806206647264788e-20              3.7635209327440555e-21            0.18868667125073385                   0.18868667125073385                     0.18868667125073385                1.0649590246097184e-15       0                    0                    0                    0                    0                    1.9784774709322324e-16    17                            2                           5                     0.99498994284662423  0.099967447000662998  6.4713868996068628e-05        9.0740078191496842e-15              6.7955961401751609e-14       
                       1.2515502019937197e-15                          79                                          4108.5105849700703                  -4.2916526758423483e-06                -1.1260333230154681e-17              3.7635209327440555e-21            0.18868667125073385                   0.18868667125073385                     0.18868667125073385                1.0649590246097184e-15      -1.1260333230154681e-17  25.000000000000004   0                    25.000000000000004   0                    1.9784774709322324e-16    18                            0                           6                     0.99498994284662423  0.099967447000662998  6.4713868996068628e-05        0                                6.7955961401751609e-14       
                       1.2515402810756049e-15                          85                                          4108.4420284071102                  -4.2894416598459873e-06                -9.9209181148352295e-21              4.0221545559863619e-21            0.19506068373076668                   0.19506068373076668                     0.19506068373076668                1.0649589585414199e-15      -1.1260675506883849e-17  25.000000000000004   0                    25.000000000000004   0                    1.9783797588651281e-16    19                            1                           6                     0.99498958531335968  0.099970485679011428  5.8566743913061998e-05        2.3122734634671034e-15              7.0268234865218705e-14       
                       1.2515006484837656e-15                          91                                          4108.1525705286676                  -4.2806103146706088e-06                -3.9632591839427473e-20              5.141271694426928e-21            0.22052564093704632                   0.22052564093704632                     0.22052564093704632                1.0649586713535738e-15      -1.126204607867048e-17  25.000000000000004   0                    25.000000000000004   0                    1.9779888193716782e-16    20                            2                           6                     0.99498813602891911  0.099982653397287624  3.3985705743459326e-05        9.2490938538684136e-15              7.9517328719087117e-14       
# Table End
