# ODT 1.0
# Table Start
# Title: mmArchive Data Table, Wed Jun 11 15:36:43 EDT 2014
# Columns: {Oxs_RungeKuttaEvolve:evolve:Total energy} {Oxs_RungeKuttaEvolve:evolve:Energy calc count} {Oxs_RungeKuttaEvolve:evolve:Max dm/dt} Oxs_RungeKuttaEvolve:evolve:dE/dt {Oxs_RungeKuttaEvolve:evolve:Delta E} Oxs_ExchangePtwise::Energy {Oxs_ExchangePtwise::Max Spin Ang} {Oxs_ExchangePtwise::Stage Max Spin Ang} {Oxs_ExchangePtwise::Run Max Spin Ang} Oxs_UniaxialAnisotropy::Energy Oxs_UZeeman::Energy  Oxs_UZeeman::B       Oxs_UZeeman::Bx      Oxs_UZeeman::By      Oxs_UZeeman::Bz      Oxs_Demag::Energy    Oxs_TimeDriver::Iteration {Oxs_TimeDriver::Stage iteration} Oxs_TimeDriver::Stage Oxs_TimeDriver::mx   Oxs_TimeDriver::my   Oxs_TimeDriver::mz   {Oxs_TimeDriver::Last time step} {Oxs_TimeDriver::Simulation time}
# Units:                       J                                            {}                                        deg/ns                                 J/s                                  J                               J                             deg                                   deg                                     deg                                 J                         J                 mT                   mT                   mT                   mT                     J                       {}                            {}                          {}                   {}                   {}                   {}                          s                                 s                
                       1.2630975940216259e-15                          1                                           4188.0445881562546                  -4.2558036933184689e-06                 0                                0                              0                                     0                                       0                                  1.0649600000000001e-15       0                    0                    0                    0                    0                    1.981375940216258e-16    0                             0                           0                     0.99498743713555371  0.099999999712112361  0                          0                                0                         
                       1.2630879428201515e-15                          7                                           4188.0453314923379                  -4.2535990573165918e-06                -9.6512014743075591e-21              4.2477327111835206e-24            0.0063399312054215539                   0.0063399312054215539                     0.0063399312054215539                1.0649599989080237e-15       0                    0                    0                    0                    0                    1.9812793966439511e-16    1                             1                           0                     0.99498753226995584  0.099999044587670075  1.9192675953116063e-06        2.2683617139287144e-15              2.2683617139287144e-15       
                       1.263049387982038e-15                          13                                          4188.0371485891055                  -4.2447926612389954e-06                -3.8554838113496561e-20              1.0600440779271408e-22            0.03167108005251093                   0.03167108005251093                     0.03167108005251093                1.0649599727228136e-15       0                    0                    0                    0                    0                    1.9808930925481655e-16    2                             2                           0                     0.9949878961326919   0.099995219242410338  9.5939957481946814e-06        9.0734468557148576e-15              1.1341808569643574e-14       
                       1.2628959650292054e-15                          19                                          4187.8280305613807                  -4.2097613178126384e-06                -1.5342295283257739e-19              1.8566300830481475e-21            0.13253477173363512                   0.13253477173363512                     0.13253477173363512                1.0649595203913069e-15       0                    0                    0                    0                    0                    1.9793458800781551e-16    3                             3                           0                     0.99498908624156501  0.099979840669874115  4.0255321169698123e-05        3.629378742285943e-14              4.7635595992503004e-14       
                       1.2622948186358236e-15                          25                                          4184.3041992671506                  -4.0727337098928669e-06                -6.0114639338194014e-19              2.9558310772464389e-20            0.52841025997989022                   0.52841025997989022                     0.52841025997989022                1.0649522429217537e-15       0                    0                    0                    0                    0                    1.9731301740329731e-16    4                             4                           0                     0.99498969368611689  0.099917114591752454  0.00016229278403875698        1.4517514969143772e-13              1.9281074568394074e-13       
                       1.038143540442215e-15                          26                                          4218.9576505410214                  -4.0942342464289176e-06                -2.2415127819360844e-16              2.9558310772464389e-20            0.52841025997989022                   0.52841025997989022                     0.52841025997989022                1.0649522429217537e-15      -2.2415127819360844e-16  50.000000000000007   50.000000000000007   0                    0                    1.9731301740329731e-16    5                             0                           1                     0.99498969368611689  0.099917114591752454  0.00016229278403875698        0                                1.9281074568394074e-13       
                       1.0381343237102633e-15                          32                                          4218.8506252454235                  -4.0920821223909357e-06                -9.2167319517552313e-21              3.0238775497251498e-20            0.53444856483441161                   0.53444856483441161                     0.53444856483441161                1.064952061812552e-15      -2.2415128662399242e-16  50.000000000000007   50.000000000000007   0                    0                    1.9730330974620655e-16    6                             1                           1                     0.99498973110792066  0.099915336182861691  0.00016575993953465144        2.2517410192021622e-15              1.950624867031429e-13       
                       1.0380975052012947e-15                          38                                          4218.4128586797988                  -4.0834858889349639e-06                -3.6818508968718806e-20              3.3034775332259619e-20            0.55857099817601097                   0.55857099817601097                     0.55857099817601097                1.0649513168183722e-15      -2.2415131695605759e-16  50.000000000000007   50.000000000000007   0                    0                    1.972644705636479e-16    7                             2                           1                     0.99498986574954529  0.099908214213013311  0.00017962374546136442        9.006964076808649e-15              2.0406945077995154e-13       
                       1.0379510027768827e-15                          44                                          4216.5092167589601                  -4.0492969095315683e-06                -1.4650242441186025e-19              4.5393178479041653e-20            0.65456599975295671                   0.65456599975295671                     0.65456599975295671                1.0649480093518498e-15      -2.241513843713881e-16  50.000000000000007   50.000000000000007   0                    0                    1.9710898461794192e-16    8                             3                           1                     0.99499016500083481  0.099879593423851817  0.00023500185170257021        3.6027856307234596e-14              2.4009730708718616e-13       
                       1.0373771419535675e-15                          50                                          4206.5848778210084                  -3.9156578815105606e-06                -5.7386082331526361e-19              1.1287221607385662e-19            1.0305119367090272                    1.0305119367090272                      1.0305119367090272                 1.0649296294490515e-15      -2.241508116314183e-16  50.000000000000007   50.000000000000007   0                    0                    1.9648545191986039e-16    9                             4                           1                     0.99498762265366769  0.099763011459836654  0.00045527717090915551        1.4411142522893838e-13              3.842087323161245e-13       
                       8.1322633032214917e-16                          51                                          4239.181885678302                   -3.9481187363963146e-06                -2.241508116314183e-16              1.1287221607385662e-19            1.0305119367090272                    1.0305119367090272                      1.0305119367090272                 1.0649296294490515e-15      -4.4830162326283659e-16  100.00000000000001   100.00000000000001   0                    0                    1.9648545191986039e-16    10                            0                           2                     0.99498762265366769  0.099763011459836654  0.00045527717090915551        0                                3.842087323161245e-13       
                       8.1321748495034889e-16                          57                                          4238.9771795511633                  -3.9460161876836314e-06                -8.8453718003046522e-21              1.141388331012721e-19            1.0362472406846182                    1.0362472406846182                      1.0362472406846182                 1.064929278651494e-15      -4.48301620188004e-16  100.00000000000001   100.00000000000001   0                    0                    1.9647568765375767e-16    11                            1                           2                     0.99498761582919903  0.099760382225892064  0.00046025660778600537        2.2409984417264337e-15              3.8644973075785094e-13       
                       8.1318215053957163e-16                          63                                          4238.1501082310997                  -3.9376183847729845e-06                -3.5334410777335128e-20              1.1926979621801457e-19            1.0591563360979792                    1.0591563360979792                      1.0591563360979792                 1.0649278559634401e-15      -4.4830160178691305e-16  100.00000000000001   100.00000000000001   0                    0                    1.9643662656682649e-16    12                            2                           2                     0.9949875749887096   0.099749853219406409  0.00048016663253471587        8.963993766905735e-15              3.9541372452475668e-13       
                       8.1304156301316261e-16                          69                                          4234.7118762141217                  -3.9042250484098149e-06                -1.4058752640896778e-19              1.4081454282208788e-19            1.1502778415553272                    1.1502778415553272                      1.1502778415553272                 1.0649218546447821e-15      -4.4830143117301107e-16  100.00000000000001   100.00000000000001   0                    0                    1.9628032499856957e-16    13                            3                           2                     0.99498719631793986  0.099707544598954506  0.00055968315101817545        3.585597506762294e-14              4.3126969959237961e-13       
                       8.1249101727314266e-16                          75                                          4219.0062860824701                  -3.7737900525096001e-06                -5.5054574001991373e-19              2.426368217740388e-19            1.5064819043809725                    1.5064819043809725                      1.5064819043809725                 1.0648929684555225e-15      -4.4829923574043811e-16  100.00000000000001   100.00000000000001   0                    0                    1.9565464773628429e-16    14                            4                           2                     0.9949823236426627   0.099535262593170748  0.00087577149487256829        1.4342390027049176e-13              5.7469359986287139e-13       
                       1.2607902530135809e-15                          76                                          4158.7731175065956                  -3.7334715442524137e-06                 4.4829923574043811e-16              2.426368217740388e-19            1.5064819043809725                    1.5064819043809725                      1.5064819043809725                 1.0648929684555225e-15       0                    0                    0                    0                    0                    1.9565464773628429e-16    15                            0                           3                     0.9949823236426627   0.099535262593170748  0.00087577149487256829        0                                5.7469359986287139e-13       
                       1.2607817267294502e-15                          82                                          4158.5488863416995                  -3.7315562765217784e-06                -8.5262841305958548e-21              2.4446041781760142e-19            1.5120718281566288                    1.5120718281566288                      1.5120718281566288                 1.0648924496740965e-15       0                    0                    0                    0                    0                    1.9564481663753616e-16    16                            1                           3                     0.99498204268016188  0.099534100281747084  0.00087759417779849564        2.2843275484323013e-15              5.7697792741130373e-13       
                       1.2607476653043692e-15                          88                                          4157.6452979158075                  -3.7239067452915566e-06                -3.4061425081085578e-20              2.5181438199692144e-19            1.5343985963493065                    1.5343985963493065                      1.5343985963493065                 1.064890355498395e-15       0                    0                    0                    0                    0                    1.9560549542397732e-16    17                            2                           3                     0.99498090508545356  0.099529447050966363  0.00088488245924609127        9.1373101937292052e-15              5.8611523760503286e-13       
                       1.2606121160406651e-15                          94                                          4153.9262546526406                  -3.6934927077053004e-06                -1.3554926370406194e-19              2.8217320813558956e-19            1.6231788041323199                    1.6231788041323199                      1.6231788041323199                 1.0648816752187578e-15       0                    0                    0                    0                    0                    1.9544826761377173e-16    18                            3                           3                     0.99497613611740621  0.099510770677729066  0.00091399638391946201        3.6549240774916821e-14              6.226644783799497e-13       
                       1.260080875163763e-15                          100                                         4137.4964711614657                  -3.5747451558998851e-06                -5.3124087690206439e-19              4.180515191781813e-19            1.9698824491495224                    1.9698824491495224                      1.9698824491495224                 1.0648421739963232e-15       0                    0                    0                    0                    0                    1.948206496482617e-16    19                            4                           3                     0.99495364670217035  0.099435069498124154  0.0010298255360143907        1.4619696309966728e-13              7.6886144147961696e-13       
                       1.7083671902218929e-15                          101                                         4083.6569364285056                  -3.6058179324431377e-06                 4.4828631505812988e-16              4.180515191781813e-19            1.9698824491495224                    1.9698824491495224                      1.9698824491495224                 1.0648421739963232e-15       4.4828631505812988e-16  100.00000000000001  -100.00000000000001   0                    0                    1.948206496482617e-16    20                            0                           4                     0.99495364670217035  0.099435069498124154  0.0010298255360143907        0                                7.6886144147961696e-13       
                       1.7083588038590879e-15                          107                                         4083.4284151959077                  -3.6040830118123845e-06                -8.3863628050608991e-21              4.2040628748661511e-19            1.9753230141076583                    1.9753230141076583                      1.9753230141076583                 1.0648414869261379e-15       4.4828606011674732e-16  100.00000000000001  -100.00000000000001   0                    0                    1.9481085052871615e-16    21                            1                           4                     0.9949530808699113   0.099435505997063287  0.0010284215782863973        2.3263462499150412e-15              7.7118778772953202e-13       
                       1.7083252987309087e-15                          113                                         4082.509211935529                   -3.5971539932067831e-06                -3.3505128179095004e-20              4.2988063025237115e-19            1.9970522663709436                    1.9970522663709436                      1.9970522663709436                 1.0648387194022369e-15       4.4828503396924253e-16  100.00000000000001  -100.00000000000001   0                    0                    1.94771664729177e-16    22                            2                           4                     0.99495080337633712  0.099437254923894186  0.0010228068746745661        9.3053849996601647e-15              7.8049317272919217e-13       
                       1.7081919206156313e-15                          119                                         4078.7523347731062                  -3.5696078824714303e-06                -1.3337811527757779e-19              4.6865281294372143e-19            2.0834419203436747                    2.0834419203436747                      2.0834419203436747                 1.0648273424725193e-15       4.4828082783468667e-16  100.00000000000001  -100.00000000000001   0                    0                    1.9461509749548159e-16    23                            3                           4                     0.99494146802797989  0.099444297704593662  0.0010003660941974397        3.7221539998640659e-14              8.1771471272783287e-13       
                       1.7076685112790929e-15                          125                                         4062.5582510267964                  -3.462099629371795e-06                -5.2340933653828768e-19              6.371458585588839e-19            2.4206736133831441                    2.4206736133831441                      2.4206736133831441                 1.0647769920990124e-15       4.4826241441951805e-16  100.00000000000001  -100.00000000000001   0                    0                    1.939919589020036e-16    24                            4                           4                     0.99490060018536497  0.099473232849575183  0.00091089170662680507        1.4888615999456263e-13              9.6660087272239559e-13       
                       1.2594060968595749e-15                          126                                         4112.0054108877512                  -3.4240821555373544e-06                -4.4826241441951805e-16              6.371458585588839e-19            2.4206736133831441                    2.4206736133831441                      2.4206736133831441                 1.0647769920990124e-15       0                    0                    0                    0                    0                    1.939919589020036e-16    25                            0                           5                     0.99490060018536497  0.099473232849575183  0.00091089170662680507        0                                9.6660087272239559e-13       
                       1.2593981881930493e-15                          132                                         4111.6857127155499                  -3.4223347717906208e-06                -7.9086665254951406e-21              6.3990169159315272e-19            2.42576815574433                      2.42576815574433                        2.42576815574433                   1.0647761517657429e-15       0                    0                    0                    0                    0                    1.9398213473571334e-16    26                            1                           5                     0.99490008796151708  0.099472052678238401  0.00091272675831183031        2.3103082439643532e-15              9.6891118096635988e-13       
                       1.2593665938593182e-15                          138                                         4110.4029266720854                  -3.4153560783996628e-06                -3.1594333731134251e-20              6.5097124313580899e-19            2.4461140932388101                    2.4461140932388101                      2.4461140932388101                 1.0647727727591036e-15       0                    0                    0                    0                    0                    1.9394284985707877e-16    27                            2                           5                     0.99489802699935681  0.09946732825908379  0.0009200644689401228        9.2412329758574129e-15              9.7815241394221727e-13       
                       1.259240859045027e-15                          144                                         4105.2095600806115                  -3.3876140398370004e-06                -1.2573481429120391e-19              6.9598024628857267e-19            2.5269837319825807                    2.5269837319825807                      2.5269837319825807                 1.0647589751010921e-15       0                    0                    0                    0                    0                    1.9378590369764642e-16    28                            3                           5                     0.99488959132487442  0.099448371109627495  0.00094937542925841779        3.6964931903429651e-14              1.0151173458456468e-12       
                       1.258748023405165e-15                          150                                         4083.5443873833251                  -3.2793623728694596e-06                -4.9283563986210684e-19              8.8716631254983321e-19            2.8423483289591571                    2.8423483289591571                      2.8423483289591571                 1.0646993510181093e-15       0                    0                    0                    0                    0                    1.931615060745058e-16    29                            4                           5                     0.99485285786900068  0.099371607687842506  0.0010659850531187461        1.4785972761371861e-13              1.1629770734593655e-12       
                       1.2475548055152063e-15                          151                                         3954.4139109564767                  -3.3817096447562861e-06                -1.119321788995858e-17              8.8716631254983321e-19            2.8423483289591571                    2.8423483289591571                      2.8423483289591571                 1.0646993510181093e-15      -1.119321788995858e-17  25.000000000000004   0                    25.000000000000004   0                    1.931615060745058e-16    30                            0                           6                     0.99485285786900068  0.099371607687842506  0.0010659850531187461        0                                1.1629770734593655e-12       
                       1.247546683443137e-15                          157                                         3953.9853606457027                  -3.379982075439196e-06                -8.1220720693681619e-21              8.9041245123527196e-19            2.847365856286439                     2.847365856286439                       2.847365856286439                  1.0646983464319601e-15      -1.1193547485167711e-17  25.000000000000004   0                    25.000000000000004   0                    1.9315147204510925e-16    31                            1                           6                     0.99485181360171038  0.09937453378167356  0.0010594614425459823        2.4023787630521916e-15              1.1653794522224177e-12       
                       1.2475142366169533e-15                          163                                         3952.267247019854                   -3.3730830797488145e-06                -3.2446826183675227e-20              9.0344014589717267e-19            2.8674020758948022                    2.8674020758948022                      2.8674020758948022                 1.0646943092087699e-15      -1.1194867617244973e-17  25.000000000000004   0                    25.000000000000004   0                    1.9311135487953123e-16    32                            2                           6                     0.99484762207495836  0.099386253704234484  0.001033375285498442        9.6095150522087665e-15              1.1749889672746265e-12       
                       1.2473851096799489e-15                          169                                         3945.3339426299185                  -3.3456667500765424e-06                -1.2912693700436708e-19              9.5623239255679774e-19            2.9470071070144623                    2.9470071070144623                      2.9470071070144623                 1.0646778595512584e-15      -1.1200176151205818e-17  25.000000000000004   0                    25.000000000000004   0                    1.9295119388733947e-16    33                            3                           6                     0.99483062601158712  0.099433382024199365  0.00092916323153412661        3.8438060208835066e-14              1.2134270274834615e-12       
                       1.2468789769506943e-15                          175                                         3916.7352436549331                  -3.2388213435069651e-06                -5.0613272925456687e-19              1.1777596881853152e-18            3.3184962083166658                    3.3184962083166658                      3.3184962083166658                 1.0646073308966053e-15      -1.1221857410899497e-17  25.000000000000004   0                    25.000000000000004   0                    1.9231574377680317e-16    34                            4                           6                     0.99475904858935305  0.099625864798468536  0.00051443702836030962        1.5375224083534026e-13              1.3671792683188018e-12       
# Table End
