# ODT 1.0
# Table Start
# Title: mmArchive Data Table, Wed Jun 11 15:37:02 EDT 2014
# Columns: {Oxs_CGEvolve::Max mxHxm} {Oxs_CGEvolve::Total energy} {Oxs_CGEvolve::Delta E} {Oxs_CGEvolve::Bracket count} {Oxs_CGEvolve::Line min count} {Oxs_CGEvolve::Conjugate cycle count} {Oxs_CGEvolve::Cycle count} {Oxs_CGEvolve::Cycle sub count} {Oxs_CGEvolve::Energy calc count} Oxs_Demag::Energy    Oxs_MinDriver::Iteration {Oxs_MinDriver::Stage iteration} Oxs_MinDriver::Stage Oxs_MinDriver::mx    Oxs_MinDriver::my    Oxs_MinDriver::mz    {Oxs_MinDriver::Max Spin Ang} {Oxs_MinDriver::Stage Max Spin Ang} {Oxs_MinDriver::Run Max Spin Ang} Oxs_Demag::Nxx       {Oxs_Demag::octant Nxx} Oxs_Demag::Nxy       {Oxs_Demag::octant Nxy} {Oxs_MinDriver::octant Mx}
# Units:              A/m                         J                          J                         {}                             {}                                {}                               {}                            {}                               {}                         J                       {}                           {}                         {}                 {}                   {}                   {}                         deg                              deg                                deg                     A/m                       A/m                A/m                       A/m                      A/m            
              69722.935306614832          1.3404128655316452e-19       1.3404128655316452e-19        0                              0                                 1                                1                             0                                1                           1.3404128655316452e-19    0                            0                          0                    1                    0                    0                        0                                0                                  0                           0.33333333333333337   0.33333333333333337    0                    -0.061626950449422888       800000                
              69627.221175680374          1.3398016071908296e-19      -6.1125834081557974e-23        1                              0                                 1                                1                             0                                2                           1.3398016071908296e-19    1                            1                          0                    0.99999961922824943  0                    0                        0.10000000000000001              0.10000000000000001                0.10000000000000001         0.33325715049499138   0.33325715049499138    0                    -0.061336731677026017       799999.6953825996     
              46782.489914478509          1.2371522342685381e-19      -1.0264937292229145e-20        2                              0                                 1                                1                             0                                3                           1.2371522342685381e-19    2                            2                          0                    0.98480775301220802  0                    0                        20                               20                                 20                          0.31313517518209072   0.31313517518209072    0                    -0.0029458432970564702       787846.2024097665     
              22978.007254858145          1.1852942207421463e-19      -5.1858013526391943e-21        3                              0                                 2                                2                             0                                4                           1.1852942207421463e-19    3                            3                          0                    0.94880739868547881  0                    0                        36.824900753468874               36.824900753468874                 36.824900753468874          0.28874119152988531   0.28874119152988531    0                     0.04656218887854785       759045.91894838307    
              18199.385802638441          1.1795577532005836e-19      -5.7364675415626689e-22        4                              0                                 2                                2                             0                                5                           1.1795577532005836e-19    4                            4                          0                    0.93969262078590843  0                    0                        40                               40                                 40                          0.28342256318698439   0.28342256318698439    0                     0.055824771813222374       751754.09662872669    
# Table End
