# ODT 1.0
# Table Start
# Title: mmArchive Data Table, Wed Jun 11 15:37:02 EDT 2014
# Columns: {Oxs_CGEvolve::Max mxHxm} {Oxs_CGEvolve::Total energy} {Oxs_CGEvolve::Delta E} {Oxs_CGEvolve::Bracket count} {Oxs_CGEvolve::Line min count} {Oxs_CGEvolve::Conjugate cycle count} {Oxs_CGEvolve::Cycle count} {Oxs_CGEvolve::Cycle sub count} {Oxs_CGEvolve::Energy calc count} Oxs_Demag::Energy    Oxs_MinDriver::Iteration {Oxs_MinDriver::Stage iteration} Oxs_MinDriver::Stage Oxs_MinDriver::mx    Oxs_MinDriver::my    Oxs_MinDriver::mz    {Oxs_MinDriver::Max Spin Ang} {Oxs_MinDriver::Stage Max Spin Ang} {Oxs_MinDriver::Run Max Spin Ang} Oxs_Demag::Nxx       {Oxs_Demag::octant Nxx} Oxs_Demag::Nxy       {Oxs_Demag::octant Nxy} {Oxs_MinDriver::octant Mx}
# Units:              A/m                         J                          J                         {}                             {}                                {}                               {}                            {}                               {}                         J                       {}                           {}                         {}                 {}                   {}                   {}                         deg                              deg                                deg                     A/m                       A/m                A/m                       A/m                      A/m            
              69722.935306614832          1.3404128655316452e-19       1.3404128655316452e-19        0                              0                                 1                                1                             0                                1                           1.3404128655316452e-19    0                            0                          0                    1                    0                    0                        0                                0                                  0                           0.33333333333333337   0.33333333333333337    0                    -0.061626950449422888       800000                
# Table End
