# ODT 1.0
# Table Start
# Title: mmArchive Data Table, Thu May 14 16:32:17 EDT 2015
# Columns: {Oxs_CGEvolve:evolve:Max mxHxm} {Oxs_CGEvolve:evolve:Total energy} {Oxs_CGEvolve:evolve:Delta E} {Oxs_CGEvolve:evolve:Bracket count} {Oxs_CGEvolve:evolve:Line min count} {Oxs_CGEvolve:evolve:Conjugate cycle count} {Oxs_CGEvolve:evolve:Cycle count} {Oxs_CGEvolve:evolve:Cycle sub count} {Oxs_CGEvolve:evolve:Energy calc count} Oxs_Demag::Energy    Oxs_MinDriver::Iteration {Oxs_MinDriver::Stage iteration} Oxs_MinDriver::Stage Oxs_MinDriver::mx    Oxs_MinDriver::my    Oxs_MinDriver::mz   
# Units:                 A/m                               J                                J                               {}                                   {}                                      {}                                     {}                                  {}                                     {}                            J                       {}                           {}                         {}                 {}                   {}                   {}           
                 0                                 2.0943951023931955e-07             2.0943951023931955e-07              0                                    0                                       1                                      1                                   0                                      1                              2.0943951023931955e-07    0                            0                          0                   -1                    0                    0                  
# Table End
