# ODT 1.0
# Table Start
# Title: mmArchive Data Table, Wed Jun 11 15:37:08 EDT 2014
# Columns: {Oxs_CGEvolve:evolve:Max mxHxm} {Oxs_CGEvolve:evolve:Total energy} {Oxs_CGEvolve:evolve:Delta E} {Oxs_CGEvolve:evolve:Bracket count} {Oxs_CGEvolve:evolve:Line min count} {Oxs_CGEvolve:evolve:Conjugate cycle count} {Oxs_CGEvolve:evolve:Cycle count} {Oxs_CGEvolve:evolve:Cycle sub count} {Oxs_CGEvolve:evolve:Energy calc count} Oxs_UniformExchange::Energy {Oxs_UniformExchange::Max Spin Ang} {Oxs_UniformExchange::Stage Max Spin Ang} {Oxs_UniformExchange::Run Max Spin Ang} Oxs_UniaxialAnisotropy::Energy Oxs_Demag::Energy    Oxs_UZeeman::Energy  Oxs_UZeeman::B       Oxs_UZeeman::Bx      Oxs_UZeeman::By      Oxs_UZeeman::Bz      Oxs_MinDriver::Iteration {Oxs_MinDriver::Stage iteration} Oxs_MinDriver::Stage Oxs_MinDriver::Mx    Oxs_MinDriver::My    Oxs_MinDriver::Mz   
# Units:                 A/m                               J                                J                               {}                                   {}                                      {}                                     {}                                  {}                                     {}                                 J                              deg                                    deg                                      deg                                 J                        J                     J                 mT                   mT                   mT                   mT                        {}                           {}                         {}                 A/m                  A/m                  A/m          
                 253391.72499627568               -3.0361106672274617e-16            -3.0361106672274617e-16              0                                    0                                       1                                      1                                   0                                      1                                 0                               0                                      0                                        0                                   4.9504950495049508e-20       1.2495226298685308e-16 -4.2861283466009429e-16  50.007616402258023   50.000000000000007   0.87275325000000015  0                      0                            0                          0                    855731.98358059011   85573.198358059046   0                  
                 252606.25374539208               -3.0363148079519042e-16            -2.0414072444263257e-20              1                                    0                                       1                                      1                                   0                                      2                                 2.0141268225145653e-23             0.030990957665469211                    0.030990957665469211                      0.030990957665469211                 4.948540780799753e-20       1.2493254518091093e-16 -4.2861353152517759e-16  50.007616402258023   50.000000000000007   0.87275325000000015  0                      1                            1                          0                    855733.67262626032   85556.279744288389   4.4131365228849975e-19
                 161353.82546495786               -3.0642244904745845e-16            -2.7909682522680534e-18              2                                    0                                       1                                      1                                   0                                      3                                 8.0995814396172955e-19             6.1934803769906601                     6.1934803769906601                       6.1934803769906601                  4.6844476835546644e-20       1.214182362145693e-16 -4.2869748788282503e-16  50.007616402258023   50.000000000000007   0.87275325000000015  0                      2                            2                          0                    855961.17049869976   82142.648391756389  -9.3258734068513155e-18
                 240811.1498756762                -3.0738670145305305e-16            -9.6425240559458844e-19              3                                    0                                       2                                      2                                   0                                      4                                 1.3145055886573903e-18             11.586637349317696                     11.586637349317696                       11.586637349317696                  4.4235704070259036e-20       1.2003078668910663e-16 -4.2877622943488734e-16  50.007616402258023   50.000000000000007   0.87275325000000015  0                      3                            3                          0                    856184.79222359415   78353.569361126196   8.0735418350741379e-17
                 300517.6785231072                -3.0747215213614141e-16            -8.5450683088326585e-20              4                                    0                                       2                                      2                                   0                                      5                                 1.5733079276528007e-18             13.223421713719612                     13.223421713719612                       13.223421713719612                  4.3748863577227296e-20       1.1969916207343592e-16 -4.2878837100080733e-16  50.007616402258023   50.000000000000007   0.87275325000000015  0                      4                            4                          0                    856226.05879912619   77380.588527646498   4.618527782440651e-17
                 300669.01154285466               -2.9889638471612524e-16             8.5757674200161463e-18              4                                    0                                       3                                      3                                   0                                      6                                 1.5733079276528007e-18             13.223421713719612                     13.223421713719612                       13.223421713719612                  4.3748863577227296e-20       1.1969916207343592e-16 -4.2021260358079121e-16  49.007464074212862   49.000000000000007   0.8552981850000001   0                      5                            0                          1                    856226.05879912619   77380.588527646498   4.618527782440651e-17
                 161276.60230007864               -2.9946942210278459e-16            -5.7303738665934493e-19              5                                    1                                       3                                      3                                   0                                      8                                 1.3772504379764054e-18             7.3502445945528967                     13.223421713719612                       13.223421713719612                  4.3053296129692713e-20       1.1934344169776697e-16 -4.2023316753465767e-16  49.007464074212862   49.000000000000007   0.8552981850000001   0                      6                            1                          1                    856285.24761139182   76393.966050052186   8.7752027866372372e-17
                 134040.50819933819               -2.9992858319211336e-16            -4.5916108932878139e-19              6                                    1                                       3                                      4                                   1                                      9                                 1.4005971134571397e-18             7.9718462179240301                     13.223421713719612                       13.223421713719612                  4.2141580718307508e-20       1.1888531908847125e-16 -4.2025664097476008e-16  49.007464074212862   49.000000000000007   0.8552981850000001   0                      7                            2                          1                    856362.21459651121   74729.004887284827   7.7804429565730968e-17
                 515197.21262260404               -3.0025419290577697e-16            -3.2560971366358777e-19              7                                    1                                       3                                      4                                   1                                      10                                2.1294461025122762e-18             9.4243699681606508                     13.223421713719612                       13.223421713719612                  4.0899050286328697e-20       1.1784795695234072e-16 -4.2027249501091627e-16  49.007464074212862   49.000000000000007   0.8552981850000001   0                      8                            3                          1                    856462.68373208039   70826.758763301405   6.7501559897209516e-17
                 438680.95363782399               -3.0027250277843076e-16            -1.8309872653783752e-20              7                                    2                                       3                                      4                                   1                                      11                                1.9214749893112225e-18             9.1517412555534783                     13.223421713719612                       13.223421713719612                  4.1039363016914973e-20       1.1803861675288968e-16 -4.2027363388364853e-16  49.007464074212862   49.000000000000007   0.8552981850000001   0                      9                            4                          1                    856452.19503768906   71560.810710811187  -1.3606893389805919e-16
                 438814.68352917593               -2.9169548984202973e-16             8.5770129364009904e-18              7                                    2                                       4                                      5                                   0                                      12                                1.9214749893112225e-18             9.1517412555534783                     9.1517412555534783                       13.223421713719612                  4.1039363016914973e-20       1.1803861675288968e-16 -4.1169662094724754e-16  48.007311746167701   48.000000000000007   0.83784312000000005  0                      10                           0                          2                    856452.19503768906   71560.810710811187  -1.3606893389805919e-16
                 663220.56188214058               -2.9190580571533395e-16            -2.1031587330422564e-19              8                                    2                                       4                                      5                                   0                                      13                                1.9977462179959257e-18             14.6831593369803                       14.6831593369803                         14.6831593369803                    4.0987351032250543e-20       1.1774367252925323e-16 -4.116882118136154e-16  48.007311746167701   48.000000000000007   0.83784312000000005  0                      11                           1                          2                    856454.03285852901   70451.85756510451   -2.8856916856057071e-16
                 174321.74813498679               -2.9241047317053287e-16            -5.0466745519887586e-19              8                                    3                                       4                                      5                                   0                                      14                                1.4031193025936825e-18             7.3409437155083479                     14.6831593369803                         14.6831593369803                    4.0897575335390089e-20       1.1784243997257248e-16 -4.1169693002103441e-16  48.007311746167701   48.000000000000007   0.83784312000000005  0                      12                           2                          2                    856463.30517503526   70961.200590561042   2.0587975768648903e-16
                 122276.20564333251               -2.9276081444066483e-16            -3.5034127013199571e-19              9                                    3                                       4                                      6                                   1                                      15                                1.3556386113952622e-18             9.235195917360933                      14.6831593369803                         14.6831593369803                    4.0944464305576616e-20       1.1752847211585177e-16 -4.1168586963221746e-16  48.007311746167701   48.000000000000007   0.83784312000000005  0                      13                           3                          2                    856456.44863765873   70033.908751463328   2.5899282718455654e-16
                 494478.0081994597                -2.928286455640858e-16            -6.7831123420969985e-20              10                                   3                                       4                                      6                                   1                                      16                                1.7275149240941607e-18             13.775334777367629                     14.6831593369803                         14.6831593369803                    4.1282425527763298e-20       1.1705959806675221e-16 -4.1165704098045994e-16  48.007311746167701   48.000000000000007   0.83784312000000005  0                      14                           4                          2                    856421.4663844381    68597.223299944628   5.3450577297553537e-16
                 494602.22758089745               -2.8425245721032622e-16             8.5761883537595827e-18              10                                   3                                       5                                      7                                   0                                      17                                1.7275149240941607e-18             13.775334777367629                     13.775334777367629                       14.6831593369803                    4.1282425527763298e-20       1.1705959806675221e-16 -4.0308085262670036e-16  47.007159418122541   47                   0.82038805500000012  0                      15                           0                          3                    856421.4663844381    68597.223299944628   5.3450577297553537e-16
                 1211947.2766901504               -2.8458330908896527e-16            -3.3085187863903587e-19              11                                   3                                       5                                      7                                   0                                      18                                1.923816491772023e-18             19.59728633137777                      19.59728633137777                        19.59728633137777                   4.1703492021742882e-20       1.1650576715177978e-16 -4.030545962245388e-16  47.007159418122541   47                   0.82038805500000012  0                      16                           1                          3                    856379.98026503832   67773.475806001472   3.3377745012330708e-16
                 547142.09216628969               -2.8483612959638007e-16            -2.5282050741481196e-19              11                                   4                                       5                                      7                                   0                                      19                                1.4842004607146656e-18             12.299229885210861                     19.59728633137777                        19.59728633137777                   4.146766786233603e-20       1.1670619827685999e-16 -4.0306799600181709e-16  47.007159418122541   47                   0.82038805500000012  0                      17                           2                          3                    856402.75223334774   68102.216839760338   2.7906565946977933e-16
                 314271.14681940229               -2.8518754019710829e-16            -3.5141060072823265e-19              12                                   4                                       5                                      8                                   1                                      20                                1.5816633255687015e-18             7.821205767059018                      19.59728633137777                        19.59728633137777                   4.2012747360405553e-20       1.1622507167431112e-16 -4.0303628794434855e-16  47.007159418122541   47                   0.82038805500000012  0                      18                           3                          3                    856349.96891631663   67261.16382565505    5.8477667153056244e-16
                 582046.7512961938                -2.8520866575424697e-16            -2.1125557138650574e-20              13                                   5                                       5                                      8                                   1                                      22                                1.696278128270132e-18             9.2281649432120361                     19.59728633137777                        19.59728633137777                   4.2218448717274022e-20       1.1607763801407862e-16 -4.0302480034531298e-16  47.007159418122541   47                   0.82038805500000012  0                      19                           4                          3                    856330.13832056418   66996.993836995069   3.5207392556912962e-16
                 582100.17565917515               -2.7663367000221902e-16             8.574995752027936e-18              13                                   5                                       6                                      9                                   0                                      23                                1.696278128270132e-18             9.2281649432120361                     9.2281649432120361                       19.59728633137777                   4.2218448717274022e-20       1.1607763801407862e-16 -3.9444980459328508e-16  46.007007090077387   46                   0.80293299000000007  0                      20                           0                          4                    856330.13832056418   66996.993836995069   3.5207392556912962e-16
                 1008615.4780794418               -2.7687267921168697e-16            -2.3900920946796534e-19              14                                   5                                       6                                      9                                   0                                      24                                1.7367550078373804e-18             17.397295790231979                     17.397295790231979                       19.59728633137777                   4.2798808014324092e-20       1.1576719603972443e-16 -3.9441942906726315e-16  46.007007090077387   46                   0.80293299000000007  0                      21                           1                          4                    856274.78072556655   66385.357201781866  -4.0643044485477731e-16
                 518914.07463161141               -2.7693600120151306e-16            -6.3321989826077617e-20              14                                   6                                       6                                      9                                   0                                      25                                1.5907191808055414e-18             11.299784400036616                     17.397295790231979                       19.59728633137777                   4.2593382953406709e-20       1.1586066799703451e-16 -3.9442998176230652e-16  46.007007090077387   46                   0.80293299000000007  0                      22                           2                          4                    856294.35235375015   66578.367838818667   3.8546943414985435e-16
                 205446.37773716182               -2.7736868448500182e-16            -4.3268328348873563e-19              15                                   6                                       6                                      10                                  1                                      26                                1.6063152258849019e-18             10.087993510515545                     17.397295790231979                       19.59728633137777                   4.3620322593708126e-20       1.1535907671550939e-16 -3.9437769674898981e-16  46.007007090077387   46                   0.80293299000000007  0                      23                           3                          4                    856196.52054915787   65671.395115687963   4.9240611588174943e-16
                 633775.90607513534               -2.7745811409348677e-16            -8.9429608484945676e-20              16                                   6                                       6                                      10                                  1                                      27                                2.223913071474136e-18             14.908024926061591                     17.397295790231979                       19.59728633137777                   4.5756360184053826e-20       1.1454372672777632e-16 -3.9427151025292125e-16  46.007007090077387   46                   0.80293299000000007  0                      24                           4                          4                    855992.0425030723    64161.107828927328   2.2577495428777182e-16
                 633743.13898793061               -2.6888699430537979e-16             8.5711197881069843e-18              16                                   6                                       7                                      11                                  0                                      28                                2.223913071474136e-18             14.908024926061591                     14.908024926061591                       19.59728633137777                   4.5756360184053826e-20       1.1454372672777632e-16 -3.8570039046481426e-16  45.006854762032226   45                   0.78547792500000013  0                      25                           0                          5                    855992.0425030723    64161.107828927328   2.2577495428777182e-16
                 1070817.2414172911               -2.6953295808184578e-16            -6.4596377646602043e-19              17                                   6                                       7                                      11                                  0                                      29                                2.0812065260692553e-18             15.56789316270102                      15.56789316270102                        19.59728633137777                   4.6667059696384992e-20       1.1399693622886145e-16 -3.8565776789647286e-16  45.006854762032226   45                   0.78547792500000013  0                      26                           1                          5                    855904.84708505974   63730.207083282141   2.5988100560425667e-16
                 602030.37382457987               -2.6967260249789446e-16            -1.3964441604865682e-19              17                                   7                                       7                                      11                                  0                                      30                                1.8123484288070334e-18             11.349619634753228                     15.56789316270102                        19.59728633137777                   4.6345944135471216e-20       1.1414129185214715e-16 -3.8567258872298407e-16  45.006854762032226   45                   0.78547792500000013  0                      27                           2                          5                    855935.5248860789    63859.531666470939   3.7267966490617252e-16
                 302610.50120600278               -2.7003460732850778e-16            -3.620048306133221e-19              18                                   7                                       7                                      12                                  1                                      31                                1.9261313463601822e-18             8.1779189787380844                     15.56789316270102                        19.59728633137777                   4.7683495137531535e-20       1.1360247726140582e-16 -3.856108994314113e-16  45.006854762032226   45                   0.78547792500000013  0                      28                           3                          5                    855807.71117708588   63328.247158902501   3.2187585929932538e-16
                 192607.43816262324               -2.7004208202501419e-16            -7.4746965064490927e-21              18                                   8                                       7                                      12                                  1                                      32                                1.862688673237457e-18             7.8104723035988721                     15.56789316270102                        19.59728633137777                   4.7504908844179505e-20       1.1366683745826451e-16 -3.8561911306536035e-16  45.006854762032226   45                   0.78547792500000013  0                      29                           4                          5                    855824.80338074546   63394.721630760294   4.3698378249246162e-17
                 192689.89931665966               -2.6147276840133953e-16             8.5693136236746744e-18              18                                   8                                       8                                      13                                  0                                      33                                1.862688673237457e-18             7.8104723035988721                     7.8104723035988721                       19.59728633137777                   4.7504908844179505e-20       1.1366683745826451e-16 -3.7704979944168569e-16  44.006702433987066   44                   0.76802286000000008  0                      30                           0                          6                    855824.80338074546   63394.721630760294   4.3698378249246162e-17
                 323459.24709236913               -2.6178919560961599e-16            -3.1642720827646523e-19              19                                   8                                       8                                      13                                  0                                      34                                1.8443943861740158e-18             8.4624399629894729                     8.4624399629894729                       19.59728633137777                   4.8585667000823517e-20       1.1331939018187516e-16 -3.7700156584466599e-16  44.006702433987066   44                   0.76802286000000008  0                      31                           1                          6                    855721.61699627363   63026.036270008684  -9.4146912488213275e-18
                 499845.33257409156               -2.6181185191858074e-16            -2.2656308964753442e-20              20                                   9                                       8                                      13                                  0                                      36                                1.9214917562981556e-18             9.8822530919058824                     9.8822530919058824                       19.59728633137777                   4.8986032365957412e-20       1.1320138080352545e-16 -3.7698371051077031e-16  44.006702433987066   44                   0.76802286000000008  0                      32                           2                          6                    855683.29389405751   62896.721249282513   2.2861712523081225e-16
                 399848.94583048456               -2.6262073655967261e-16            -8.0888464109182173e-19              21                                   9                                       8                                      14                                  1                                      37                                2.5419719371858463e-18             13.826729309331952                     13.826729309331952                       19.59728633137777                   5.5031816911880431e-20       1.1149491264863933e-16 -3.7671265296240963e-16  44.006702433987066   44                   0.76802286000000008  0                      33                           3                          6                    855097.27075658541   61177.063077526363  -1.305622276959184e-16
                 455795.7746226996                -2.6262443463913435e-16            -3.698079461783354e-21              22                                   10                                      8                                      14                                  1                                      39                                2.6390979321563916e-18             14.346538110567181                     14.346538110567181                       19.59728633137777                   5.5515828243216073e-20       1.1137172370535056e-16 -3.7669077210488454e-16  44.006702433987066   44                   0.76802286000000008  0                      34                           4                          6                    855049.74539442826   61050.804052376749  -1.7408297026122454e-17
# Table End
