# ODT 1.0
# Table Start
# Title: mmArchive Data Table, Wed Aug 17 23:55:25 EDT 2011
# Columns: {Oxs_CGEvolve:evolve:Max mxHxm} {Oxs_CGEvolve:evolve:Total energy} {Oxs_CGEvolve:evolve:Delta E} {Oxs_CGEvolve:evolve:Bracket count} {Oxs_CGEvolve:evolve:Line min count} {Oxs_CGEvolve:evolve:Conjugate cycle count} {Oxs_CGEvolve:evolve:Cycle count} {Oxs_CGEvolve:evolve:Cycle sub count} {Oxs_CGEvolve:evolve:Energy calc count} Oxs_UniformExchange::Energy {Oxs_UniformExchange::Max Spin Ang} {Oxs_UniformExchange::Stage Max Spin Ang} {Oxs_UniformExchange::Run Max Spin Ang} Oxs_UniaxialAnisotropy::Energy Oxs_Demag::Energy    Oxs_UZeeman::Energy  Oxs_UZeeman::B       Oxs_UZeeman::Bx      Oxs_UZeeman::By      Oxs_UZeeman::Bz      Oxs_MinDriver::Iteration {Oxs_MinDriver::Stage iteration} Oxs_MinDriver::Stage Oxs_MinDriver::Mx    Oxs_MinDriver::My    Oxs_MinDriver::Mz   
# Units:                 A/m                               J                                J                               {}                                   {}                                      {}                                     {}                                  {}                                     {}                                 J                              deg                                    deg                                      deg                                 J                        J                     J                 mT                   mT                   mT                   mT                        {}                           {}                         {}                 A/m                  A/m                  A/m          
                 253391.72499669276               -3.0361106673362027e-16            -3.0361106673362027e-16              0                                    0                                       1                                      1                                   1                                      1                                 0                               0                                      0                                        0                                   4.9504950495049508e-20       1.2495226297597905e-16 -4.2861283466009439e-16  50.007616402258023   50                   0.87275325000000004  0                      0                            0                          0                    855731.98358142329   85573.198358236608   0                  
                 252606.25374581205               -3.0363148080606453e-16            -2.0414072444255072e-20              1                                    0                                       1                                      1                                   1                                      2                                 2.0141268225067861e-23             0.030990957686085074                    0.030990957686085074                      0.030990957686085074                 4.948540780799744e-20       1.2493254517003687e-16 -4.2861353152517759e-16  50.007616402258023   50                   0.87275325000000004  0                      1                            1                          0                    855733.6726262616    85556.279744290077   1.0238920822303044e-15
                 247102.75893893835               -3.037725810036863e-16            -1.4110019762177313e-19              2                                    0                                       1                                      1                                   1                                      3                                 1.2890106937219369e-21             0.24792341791782882                    0.24792341791782882                      0.24792341791782882                 4.93504100682352e-20       1.2479511096430423e-16 -4.2861833138875245e-16  50.007616402258023   50                   0.87275325000000004  0                      2                            2                          0                    855745.33983534144   85437.833784662973   1.5347723092418164e-15
                 247158.75718706974               -2.9520021437591129e-16             8.5723666277750126e-18              2                                    0                                       2                                      2                                   2                                      4                                 1.2890106937219369e-21             0.24792341791782882                    0.24792341791782882                      0.24792341791782882                 4.93504100682352e-20       1.2479511096430423e-16 -4.2004596476097749e-16  49.007464074212862   49                   0.85529818499999999  0                      3                            0                          1                    855745.33983534144   85437.833784662973   1.5347723092418164e-15
                 246388.52483831724               -2.9522008254795325e-16            -1.9868172041967242e-20              3                                    0                                       2                                      2                                   0                                      5                                 1.6265149165788147e-21             0.27798471153953058                    0.27798471153953058                      0.27798471153953058                 4.9331208732797325e-20       1.2477559158333752e-16 -4.2004663185494016e-16  49.007464074212862   49                   0.85529818499999999  0                      4                            1                          1                    855746.9992476349    85420.761603001898  -1.261923898709938e-15
                 240991.88262878565               -2.9535739838135249e-16            -1.3731583339923122e-19              4                                    0                                       2                                      2                                   0                                      6                                 5.0871607526886182e-21             0.48840970251689658                    0.48840970251689658                      0.48840970251689658                 4.919859597572979e-20       1.2463954091829432e-16 -4.2005122505637522e-16  49.007464074212862   49                   0.85529818499999999  0                      5                            2                          1                    855758.45937399869   85301.24065678964   -1.006128513836302e-14
                 241053.64993299678               -2.8678492440061017e-16             8.5724739807423153e-18              4                                    0                                       3                                      3                                   1                                      7                                 5.0871607526886182e-21             0.48840970251689658                    0.48840970251689658                      0.48840970251689658                 4.919859597572979e-20       1.2463954091829432e-16 -4.1147875107563291e-16  48.007311746167701   48                   0.83784312000000005  0                      6                            0                          2                    855758.45937399869   85301.24065678964   -1.006128513836302e-14
                 240298.42428798653               -2.8680425687332793e-16            -1.9332472717758554e-20              5                                    0                                       3                                      3                                   0                                      8                                 5.7293218849343226e-21             0.51758083494856577                    0.51758083494856577                      0.51758083494856577                 4.9179735663536287e-20       1.2462022313423229e-16 -4.1147938906510871e-16  48.007311746167701   48                   0.83784312000000005  0                      7                            1                          2                    855760.08916832064   85284.016453072574  -8.1854523159563549e-16
                 235007.00479054553               -2.8693785921268627e-16            -1.3360233935834371e-19              6                                    0                                       3                                      3                                   0                                      9                                 1.1293933841512665e-20             0.72177471753244127                    0.72177471753244127                      0.72177471753244127                 4.9049505238921527e-20       1.244855776220678e-16 -4.1148378027383447e-16  48.007311746167701   48                   0.83784312000000005  0                      8                            2                          2                    855771.34234078159   85163.431343352364  -2.7512214728631082e-15
                 235074.54529723409               -2.7836528045698139e-16             8.5725787557048827e-18              6                                    0                                       4                                      4                                   1                                      10                                1.1293933841512665e-20             0.72177471753244127                    0.72177471753244127                      0.72177471753244127                 4.9049505238921527e-20       1.244855776220678e-16 -4.0291120151812959e-16  47.007159418122541   47                   0.82038805500000012  0                      9                            0                          3                    855771.34234078159   85163.431343352364  -2.7512214728631082e-15
                 234334.09730799278               -2.7838408731145865e-16            -1.8806854477257158e-20              7                                    0                                       4                                      4                                   0                                      11                                1.2228433016188705e-20             0.75009282742389771                    0.75009282742389771                      0.75009282742389771                 4.9030985593789136e-20       1.2446646434007705e-16 -4.0291181107014567e-16  47.007159418122541   47                   0.82038805500000012  0                      10                           1                          3                    855772.94253216032   85146.056890128908  -1.1687006917782128e-14
                 229146.29408284178               -2.7851404647168927e-16            -1.2995916023061836e-19              8                                    0                                       4                                      4                                   0                                      12                                1.9811642044133688e-20             0.94831587623434521                    0.94831587623434521                      0.94831587623434521                 4.890313466097749e-20       1.2433324370950296e-16 -4.0291600495789739e-16  47.007159418122541   47                   0.82038805500000012  0                      11                           2                          3                    855783.98887693393   85024.420027080181   1.5688783605583014e-15
                 229219.61156219235               -2.6994136551513826e-16             8.5726809565510103e-18              8                                    0                                       5                                      5                                   1                                      13                                1.9811642044133688e-20             0.94831587623434521                    0.94831587623434521                      0.94831587623434521                 4.890313466097749e-20       1.2433324370950296e-16 -3.9434332400134628e-16  46.00700709007738    46                   0.80293299000000018  0                      12                           0                          4                    855783.98887693393   85024.420027080181   1.5688783605583014e-15
                 228493.7192814647                -2.6995965686835455e-16            -1.8291353216296648e-20              9                                    0                                       5                                      5                                   0                                      14                                2.1026417224329681e-20             0.97581601043117239                    0.97581601043117239                      0.97581601043117239                 4.8884955316847222e-20       1.2431433754180105e-16 -3.9434390578269675e-16  46.00700709007738    46                   0.80293299000000018  0                      13                           1                          4                    855785.55947867199   85006.897339092902  -1.2050804798491299e-15
                 223407.97677073369               -2.700860436572584e-16            -1.2638678890384292e-19              10                                   0                                       5                                      5                                   0                                      15                                3.0544422535194094e-20             1.1683130444113625                     1.1683130444113625                       1.1683130444113625                  4.8759480984732854e-20       1.241825594577473e-16 -3.9434790701852562e-16  46.00700709007738    46                   0.80293299000000018  0                      14                           2                          4                    855796.39910897857   84884.222828295562   2.546585164964199e-15
                 223487.07454487091               -2.6151326306989914e-16             8.5727805873592569e-18              10                                   0                                       6                                      6                                   1                                      16                                3.0544422535194094e-20             1.1683130444113625                     1.1683130444113625                       1.1683130444113625                  4.8759480984732854e-20       1.241825594577473e-16 -3.8577512643116636e-16  45.006854762032219   45                   0.78547792500000002  0                      15                           0                          5                    855796.39910897857   84884.222828295562   2.546585164964199e-15
                 222775.5266183005                -2.6153104920789899e-16            -1.7786137999848444e-20              11                                   0                                       6                                      6                                   0                                      17                                3.2027557728764939e-20             1.1950277381482455                     1.1950277381482455                       1.1950277381482455                  4.8741641595563271e-20       1.2416386270017193e-16 -3.8577568110739527e-16  45.006854762032219   45                   0.78547792500000002  0                      16                           1                          5                    855797.94013020897   84866.554181384345   2.4829205358400942e-14
                 217790.36436310649               -2.61653935819473e-16            -1.2288661157401429e-19              12                                   0                                       6                                      6                                   0                                      18                                4.3397386747726473e-20             1.3820272151053536                     1.3820272151053536                       1.3820272151053536                  4.8618541145634863e-20       1.2403354260266758e-16 -3.857794943500339e-16  45.006854762032219   45                   0.78547792500000002  0                      17                           2                          5                    855808.57312839164   84742.857955945728  -1.1823431123048069e-15
                 217875.24522366523               -2.5308105816725003e-16             8.5728776522229724e-18              12                                   0                                       7                                      7                                   1                                      19                                4.3397386747726473e-20             1.3820272151053536                     1.3820272151053536                       1.3820272151053536                  4.8618541145634863e-20       1.2403354260266758e-16 -3.7720661669781098e-16  44.006702433987058   44                   0.76802285999999997  0                      18                           0                          6                    855808.57312839164   84742.857955945728  -1.1823431123048069e-15
                 217177.84390305984               -2.5309834965773082e-16            -1.7291490480788692e-20              13                                   0                                       7                                      7                                   0                                      20                                4.5137018851019193e-20             1.4079870089235029                     1.4079870089235029                       1.4079870089235029                  4.8601041427145849e-20       1.2401505721386138e-16 -3.7720714493187032e-16  44.006702433987058   44                   0.76802285999999997  0                      19                           1                          6                    855810.084570779     84725.045909578679  -8.6856744019314658e-15
                 212291.8773948258                -2.5321781042517729e-16            -1.1946076744647582e-19              14                                   0                                       7                                      7                                   0                                      21                                5.8275906984883733e-20             1.5897017519850627                     1.5897017519850627                       1.5897017519850627                  4.8480312618922674e-20       1.2388620817512259e-16 -3.7721077481990368e-16  44.006702433987058   44                   0.76802285999999997  0                      20                           2                          6                    855820.51096328907   84600.345887810312   3.5925040720030669e-15
# Table End
