# ODT 1.0
# Table Start
# Title: mmArchive Data Table, Wed Aug 17 23:55:26 EDT 2011
# Columns: {Oxs_CGEvolve::Max mxHxm} {Oxs_CGEvolve::Total energy} {Oxs_CGEvolve::Delta E} {Oxs_CGEvolve::Bracket count} {Oxs_CGEvolve::Line min count} {Oxs_CGEvolve::Conjugate cycle count} {Oxs_CGEvolve::Cycle count} {Oxs_CGEvolve::Cycle sub count} {Oxs_CGEvolve::Energy calc count} Oxs_UniaxialAnisotropy::Energy Oxs_UniformExchange::Energy {Oxs_UniformExchange::Max Spin Ang} {Oxs_UniformExchange::Stage Max Spin Ang} {Oxs_UniformExchange::Run Max Spin Ang} Oxs_UZeeman::Energy  Oxs_UZeeman::B       Oxs_UZeeman::Bx      Oxs_UZeeman::By      Oxs_UZeeman::Bz      Oxs_Demag::Energy    Oxs_MinDriver::Iteration {Oxs_MinDriver::Stage iteration} Oxs_MinDriver::Stage Oxs_MinDriver::mx    Oxs_MinDriver::my    Oxs_MinDriver::mz   
# Units:              A/m                         J                          J                         {}                             {}                                {}                               {}                            {}                               {}                               J                             J                              deg                                    deg                                      deg                            J                 mT                   mT                   mT                   mT                     J                       {}                           {}                         {}                 {}                   {}                   {}           
              827591.13441229856          2.4617430423063543e-16       2.4617430423063543e-16        0                              0                                 1                                1                             1                                1                                1.6254804544419994e-16          6.3251884788360438e-17             49.576262590207691                     49.576262590207691                       49.576262590207691             0                    0                    0                    0                    0                    2.0374373998075067e-17    0                            0                          0                   -0.00056727355580715147  0.00010590257422602418  0.0738766672234724 
              825919.58575750294          2.4606956396773064e-16      -1.047402629047844e-19        1                              0                                 1                                1                             1                                2                                1.6245991403635374e-16          6.3244490330819444e-17             49.655024910363665                     49.655024910363665                       49.655024910363665             0                    0                    0                    0                    0                    2.0365159600557453e-17    1                            1                          0                   -0.00056718157085212256  0.00010591272741658482  0.073846405477242805
              814251.15281872649          2.4533977825755703e-16      -7.2978571017361089e-19        2                              0                                 1                                1                             1                                3                                1.6184297318057083e-16          6.3195270645013608e-17             50.206292208564193                     50.206292208564193                       50.206292208564193             0                    0                    0                    0                    0                    2.0301534431972591e-17    2                            2                          0                   -0.00056653565139115408  0.00010598101155901354  0.073633883637249348
              833407.96316675341          2.4535769425777564e-16       1.7916000218611928e-20        2                              0                                 2                                2                             2                                4                                1.6184297318057083e-16          6.3195270645013608e-17             50.206292208564193                     50.206292208564193                       50.206292208564193             1.7916000218631446e-20  50.24937810560445    50                   5                    0                    2.0301534431972591e-17    3                            0                          1                   -0.00056653565139115408  0.00010598101155901354  0.073633883637249348
              831994.47321053839          2.4526045509047779e-16      -9.7239167297849788e-20        3                              0                                 2                                2                             0                                5                                1.6176098213391772e-16          6.3189253915056161e-17             50.27998510234535                      50.27998510234535                        50.27998510234535              1.6930881943603321e-20  50.24937810560445    50                   5                    0                    2.0293288159560285e-17    4                            1                          1                   -0.00053627130994714591  0.00010902203216498887  0.073605611498968937
              822123.69240497879          2.4458264917023655e-16      -6.778059202412457e-19        4                              0                                 2                                2                             0                                6                                1.6118701543475656e-16          6.3149263891394305e-17             50.795824242647349                     50.795824242647349                       50.795824242647349             1.0044286808322679e-20  50.24937810560445    50                   5                    0                    2.0236325557277335e-17    5                            2                          1                   -0.0003247093929249311  0.000130328951611276  0.073407108915871655
              845683.09380600159          2.4459269345704487e-16       1.0044286808324864e-20        4                              0                                 3                                3                             1                                7                                1.6118701543475656e-16          6.3149263891394305e-17             50.795824242647349                     50.795824242647349                       50.795824242647349             2.0088573616645358e-20  100.4987562112089    100                  10                   0                    2.0236325557277335e-17    6                            0                          2                   -0.0003247093929249311  0.000130328951611276  0.073407108915871655
              844454.95953243726          2.4450019763499214e-16      -9.2495822052732617e-20        5                              0                                 3                                3                             0                                8                                1.6111050471195639e-16          6.3144365981893065e-17             50.864976938325185                     50.864976938325185                       50.864976938325185             1.6410688693812614e-20  100.4987562112089    100                  10                   0                    2.0228916252448907e-17    7                            1                          2                   -0.00026821612711941102  0.00013602431016005532  0.073380627330827231
              835875.23024810571          2.4385519738107518e-16      -6.4500025391695431e-19        6                              0                                 3                                3                             0                                9                                1.6057487963176628e-16          6.3111880791225465e-17             51.34899892503563                      51.34899892503563                        51.34899892503563             -9.3021790175255375e-21  100.4987562112089    100                  10                   0                    2.0177739137100936e-17    8                            2                          2                    0.00012673153095473999  0.00017592831395837495  0.073194725638263444
              859805.58875791566          2.4385054629156642e-16      -4.6510895087640748e-21        6                              0                                 4                                4                             1                                10                               1.6057487963176628e-16          6.3111880791225465e-17             51.34899892503563                      51.34899892503563                        51.34899892503563             -1.3953268526288421e-20  150.74813431681338   150.00000000000003   15.000000000000004   0                    2.0177739137100936e-17    9                            0                          3                    0.00012673153095473999  0.00017592831395837495  0.073194725638263444
              858733.94004413683          2.437605284302123e-16      -9.0017861354120589e-20        7                              0                                 4                                4                             0                                11                               1.6050326927510114e-16          6.3107899358351645e-17             51.414057008410182                     51.414057008410182                       51.414057008410182            -2.1706135535949399e-20  150.74813431681338   150.00000000000003   15.000000000000004   0                    2.017106593229548e-17    10                           1                          3                    0.00020611969965895498  0.00018395736593006698  0.073169855614107424
              851244.4197897152           2.4313257310306257e-16      -6.2795532714973442e-19        8                              0                                 4                                4                             0                                12                               1.6000191884890377e-16          6.3081569007155696e-17             51.869425190296553                     51.869425190296553                       51.869425190296553            -7.591226893429179e-20  150.74813431681338   150.00000000000003   15.000000000000004   0                    2.0124997515937422e-17    11                           2                          3                    0.00076117068919988665  0.00024020951589053926  0.072995283202823488
              875509.08207094274          2.4310726901341783e-16      -2.5304089644733228e-20        8                              0                                 5                                5                             1                                13                               1.6000191884890377e-16          6.3081569007155696e-17             51.869425190296553                     51.869425190296553                       51.869425190296553            -1.0121635857905566e-19  200.9975124224178    200                  20                   0                    2.0124997515937422e-17    12                           0                          4                    0.00076117068919988665  0.00024020951589053926  0.072995283202823488
              874570.39244025468          2.4301784280620789e-16      -8.9426207209938456e-20        9                              0                                 5                                5                             0                                14                               1.5993468733636723e-16          6.3078343958620931e-17             51.930796113156518                     51.930796113156518                       51.930796113156518            -1.1416977042100758e-19  200.9975124224178    200                  20                   0                    2.0118981281640763e-17    13                           1                          4                    0.00086064839179011022  0.00025030075839710777  0.072971860281096229
              868007.41677260422          2.4239380179590702e-16      -6.2404101030087707e-19        10                             0                                 5                                5                             0                                15                               1.5946395696591322e-16          6.3057099239604796e-17             52.360361259924893                     52.360361259924893                       52.360361259924893            -2.047431674409167e-19  200.9975124224178    200                  20                   0                    2.0077488757829913e-17    14                           2                          4                    0.0015562070112916753  0.00032099719360964346  0.07280745181552313
              892574.86870886048          2.4234261600404681e-16      -5.1185791860208087e-20        10                             0                                 6                                6                             1                                16                               1.5946395696591322e-16          6.3057099239604796e-17             52.360361259924893                     52.360361259924893                       52.360361259924893            -2.5592895930114564e-19  251.24689052802225   250                  25                   0                    2.0077488757829913e-17    15                           0                          5                    0.0015562070112916753  0.00032099719360964346  0.07280745181552313
              891749.99894075573          2.4225221107168986e-16      -9.0404932356945941e-20        11                             0                                 6                                6                             0                                17                               1.5940064560060883e-16          6.3054503593652871e-17             52.418402839427962                     52.418402839427962                       52.418402839427962            -2.7500607647359324e-19  251.24689052802225   250                  25                   0                    2.007206795390177e-17    16                           1                          5                    0.0016734081538018796  0.00033292031382777079  0.072785329033722077
              885980.41451524035          2.4162114745446089e-16      -6.3106361722896887e-19        12                             0                                 6                                6                             0                                18                               1.589573226355719e-16          6.3037495477541539e-17             52.824668490434227                     52.824668490434227                       52.824668490434227            -4.0840627945458541e-19  251.24689052802225   250                  25                   0                    2.0034735620802033e-17    17                           2                          5                    0.0024929432646034659  0.00041644631466742488  0.072630045156493406
              910823.55115895008          2.4153946619856994e-16      -8.1681255890953261e-20        12                             0                                 7                                7                             1                                19                               1.589573226355719e-16          6.3037495477541539e-17             52.824668490434227                     52.824668490434227                       52.824668490434227            -4.900875353455029e-19  301.49626863362676   300.00000000000006   30.000000000000007   0                    2.0034735620802033e-17    18                           0                          6                    0.0024929432646034659  0.00041644631466742488  0.072630045156493406
              910096.84907053492          2.4144676716168507e-16      -9.2699036884872578e-20        13                             0                                 7                                7                             0                                20                               1.5889752889882653e-16          6.303542781867113e-17             52.879693937616665                     52.879693937616665                       52.879693937616665            -5.1605188123721849e-19  301.49626863362676   300.00000000000006   30.000000000000007   0                    2.0029862325424585e-17    19                           1                          6                    0.0026258672655382026  0.00043000554178977153  0.072609091836146278
              905011.74678243347          2.4079951582829919e-16      -6.4725133338587401e-19        14                             0                                 7                                7                             0                                21                               1.5847879533064492e-16          6.3021977520799921e-17             53.264851577867894                     53.264851577867894                       53.264851577867894            -6.9762250416088694e-19  301.49626863362676   300.00000000000006   30.000000000000007   0                    1.9996365481015283e-17    20                           2                          6                    0.0035553985424692223  0.00052498879010385723  0.072462009798570245
# Table End
