# ODT 1.0
# Table Start
# Title: mmArchive Data Table, Wed Jun 11 15:37:21 EDT 2014
# Columns: {Oxs_CGEvolve::Max mxHxm} {Oxs_CGEvolve::Total energy} {Oxs_CGEvolve::Delta E} {Oxs_CGEvolve::Bracket count} {Oxs_CGEvolve::Line min count} {Oxs_CGEvolve::Conjugate cycle count} {Oxs_CGEvolve::Cycle count} {Oxs_CGEvolve::Cycle sub count} {Oxs_CGEvolve::Energy calc count} Oxs_UniaxialAnisotropy::Energy Oxs_UniformExchange::Energy {Oxs_UniformExchange::Max Spin Ang} {Oxs_UniformExchange::Stage Max Spin Ang} {Oxs_UniformExchange::Run Max Spin Ang} Oxs_UZeeman::Energy  Oxs_UZeeman::B       Oxs_UZeeman::Bx      Oxs_UZeeman::By      Oxs_UZeeman::Bz      Oxs_Demag::Energy    Oxs_MinDriver::Iteration {Oxs_MinDriver::Stage iteration} Oxs_MinDriver::Stage Oxs_MinDriver::mx    Oxs_MinDriver::my    Oxs_MinDriver::mz   
# Units:              A/m                         J                          J                         {}                             {}                                {}                               {}                            {}                               {}                               J                             J                              deg                                    deg                                      deg                            J                 mT                   mT                   mT                   mT                     J                       {}                           {}                         {}                 {}                   {}                   {}           
              827591.13441348763          2.4617430423067157e-16       2.4617430423067157e-16        0                              0                                 1                                1                             0                                1                                1.6254804544419991e-16          6.3251884788360438e-17             49.576262590207662                     49.576262590207662                       49.576262590207662             0                    0                    0                    0                    0                    2.0374373998111216e-17    0                            0                          0                   -0.00056727355580713293  0.00010590257422607632  0.073876667223472026
              825919.58575866732          2.4606956396776619e-16      -1.0474026290537583e-19        1                              0                                 1                                1                             0                                2                                1.6245991403635315e-16          6.3244490330819358e-17             49.655024910363466                     49.655024910363466                       49.655024910363466             0                    0                    0                    0                    0                    2.0365159600593682e-17    1                            1                          0                   -0.00056718157085214977  0.00010591272741663823  0.073846405477242638
              691041.59535035444          2.2765945228368032e-16      -1.8410111684085879e-17        2                              0                                 1                                1                             0                                3                                1.4491206600750265e-16          6.3577145798115635e-17             65.263817717980615                     65.263817717980615                       65.263817717980615             0                    0                    0                    0                    0                    1.9170240478062033e-17    2                            2                          0                   -0.00054728113785453025  0.00010574663948681161  0.067309204890727184
              594590.30942095071          2.1351303475683499e-16      -1.4146417526845319e-17        3                              0                                 2                                2                             0                                4                                1.2800655865325076e-16          6.6108773132614963e-17             82.224351924715151                     82.224351924715151                       82.224351924715151             0                    0                    0                    0                    0                    1.9397702970969281e-17    3                            3                          0                   -0.00052402849288215583  9.9437324971045533e-05  0.060691581415878409
              464408.87983388943          2.0194538715707011e-16      -1.1567647599764884e-17        4                              0                                 3                                3                             0                                5                                1.1085264852997546e-16          7.0743612444390786e-17             99.417243968711986                     99.417243968711986                       99.417243968711986             0                    0                    0                    0                    0                    2.0349126182703867e-17    4                            4                          0                   -0.00049873413261693634  8.6397910953198785e-05  0.053926888450379296
              500002.99009980046          2.0196118125179556e-16       1.5794094725452499e-20        4                              0                                 4                                4                             0                                6                                1.1085264852997546e-16          7.0743612444390786e-17             99.417243968711986                     99.417243968711986                       99.417243968711986             1.5794094725452493e-20  50.249378105604457   50.000000000000007   5                    0                    2.0349126182703867e-17    5                            0                          1                   -0.00049873413261693634  8.6397910953198785e-05  0.053926888450379296
              426947.54495017108          1.9351572531392206e-16      -8.4454559378734984e-18        5                              0                                 4                                4                             0                                7                                9.4984124597262905e-17          7.6950084410661204e-17             116.64189966370779                     116.64189966370779                       116.64189966370779            -2.7059370794201907e-19  50.249378105604457   50.000000000000007   5                    0                    2.1852110013939969e-17    6                            1                          1                    0.0082545442915972402  0.0014203983804093546  0.047708874584028067
              595274.12333666813          1.8971645363588262e-16      -3.7992716780394417e-18        6                              0                                 5                                5                             0                                8                                8.1287616741577449e-17          8.5490508233981052e-17             129.98057782958657                     129.98057782958657                       129.98057782958657            -4.9774948958383185e-19  50.249378105604457   50.000000000000007   5                    0                    2.3436078149907958e-17    7                            2                          1                    0.015201305378111166  0.0024397417610018228  0.042073136529116359
              532569.21525691939          1.8968087065144417e-16      -3.5582984438444349e-20        6                              1                                 5                                5                             0                                9                                8.2425231624629365e-17          8.4468606081579429e-17             128.82600375559906                     129.98057782958657                       129.98057782958657            -4.7886593015693167e-19  50.249378105604457   50.000000000000007   5                    0                    2.3265898875392318e-17    8                            3                          1                    0.014624281458968737  0.0023503696332684825  0.042581958211890293
              294600.90344534651          1.8490481849313013e-16      -4.7760521583140521e-18        7                              1                                 5                                6                             1                                10                               6.7792094382589982e-17          9.2449459958142438e-17             145.34413727371771                     145.34413727371771                       145.34413727371771            -7.046610815471581e-19  50.249378105604457   50.000000000000007   5                    0                    2.5367925233944862e-17    9                            4                          1                    0.021513110570366388  0.0035268261119694175  0.035899298668819767
              299442.56072160153          1.8420015741158298e-16      -7.046610815471581e-19        7                              1                                 6                                7                             0                                11                               6.7792094382589982e-17          9.2449459958142438e-17             145.34413727371771                     145.34413727371771                       145.34413727371771            -1.4093221630943162e-18  100.49875621120891   100.00000000000001   10                   0                    2.5367925233944862e-17    10                           0                          2                    0.021513110570366388  0.0035268261119694175  0.035899298668819767
              348788.76060832985          1.8358515673014665e-16      -6.1500068143633047e-19        8                              1                                 6                                7                             0                                12                               6.57052101754251e-17          9.3995841213289947e-17             148.02329593349043                     148.02329593349043                       148.02329593349043            -1.7361568117297748e-18  100.49875621120891   100.00000000000001   10                   0                    2.5620262153161368e-17    11                           1                          2                    0.026463501508448464  0.0047316831067583335  0.034737513144923883
              241420.68923277504          1.8338382263179808e-16      -2.0133409834856474e-19        8                              2                                 6                                7                             0                                13                               6.6350815348374581e-17          9.3139739925071458e-17             147.14487558498618                     148.02329593349043                       148.02329593349043            -1.6277965530756014e-18  100.49875621120891   100.00000000000001   10                   0                    2.5521063911427632e-17    12                           2                          2                    0.024822243035441966  0.0043320508230027758  0.035127311794488497
              207565.05807004953          1.8280686184177156e-16      -5.7696079002652422e-19        9                              2                                 6                                8                             1                                14                               6.4246710910834649e-17          9.4763190920790832e-17             149.42853880060923                     149.42853880060923                       149.42853880060923            -1.9451477585264581e-18  100.49875621120891   100.00000000000001   10                   0                    2.5742107768672518e-17    13                           3                          2                    0.029628976638882597  0.0055021141996199714  0.033797153923155243
              344269.73746535438          1.8210210246494754e-16      -7.047593768240209e-19        10                             2                                 6                                8                             1                                15                               5.9504995688174292e-17          9.8869338561725835e-17             154.62192693988104                     154.62192693988104                       154.62192693988104            -2.6898635045117601e-18  100.49875621120891   100.00000000000001   10                   0                    2.6417631719559163e-17    14                           4                          2                    0.040907926995868427  0.0082561031482888299  0.030575118098465179
              341928.422200325            1.8075717071269165e-16      -1.34493175225588e-18        10                             2                                 7                                9                             0                                16                               5.9504995688174292e-17          9.8869338561725835e-17             154.62192693988104                     154.62192693988104                       154.62192693988104            -4.0347952567676399e-18  150.74813431681338   150                  15.000000000000002   0                    2.6417631719559163e-17    15                           0                          3                    0.040907926995868427  0.0082561031482888299  0.030575118098465179
              216510.26166909732          1.8039810508599482e-16      -3.5906562669684299e-19        11                             3                                 7                                9                             0                                18                               5.9241017947078774e-17          9.8954756365601839e-17             156.03481848033846                     156.03481848033846                       156.03481848033846            -4.3115770470255508e-18  150.74813431681338   150                  15.000000000000002   0                    2.6513907820339743e-17    16                           1                          3                    0.043710692961514773  0.0088571159164676054  0.029847814324142893
              215565.12213567016          1.8008786477397592e-16      -3.1024031201890097e-19        12                             3                                 7                                10                            1                                19                               5.8875895027692747e-17          9.9291815996532718e-17             157.67195211490204                     157.67195211490204                       157.67195211490204            -4.7729610319928184e-18  150.74813431681338   150                  15.000000000000002   0                    2.6693114781743255e-17    17                           2                          3                    0.048382571599377408  0.0098611618646925001  0.028643961912597309
              460052.23622786993          1.7989454621537391e-16      -1.9331855860200735e-19        13                             3                                 7                                10                            1                                20                               5.7979538602145481e-17          1.008336165701187e-16             163.31134065760247                     163.31134065760247                       163.31134065760247            -6.417721944829016e-18  150.74813431681338   150                  15.000000000000002   0                    2.7499112987938739e-17    18                           3                          3                    0.065040655356151986  0.013404671518511451  0.024262020741824333
              309461.3285833557           1.798010754142127e-16      -9.3470801161191256e-20        13                             4                                 7                                10                            1                                21                               5.8231414892546954e-17          1.0021327012478825e-16             161.29939712195343                     163.31134065760247                       163.31134065760247            -5.8191752220551062e-18  150.74813431681338   150                  15.000000000000002   0                    2.7175565618932602e-17    19                           4                          3                    0.058978036828270269  0.012120721592371106  0.025872929592499604
              333191.85038352868          1.7786135034019434e-16      -1.9397250740183687e-18        13                             4                                 8                                11                            0                                22                               5.8231414892546954e-17          1.0021327012478825e-16             161.29939712195343                     161.29939712195343                       163.31134065760247            -7.758900296073475e-18  200.99751242241783   200.00000000000003   20                   0                    2.7175565618932602e-17    20                           0                          4                    0.058978036828270269  0.012120721592371106  0.025872929592499604
              259427.7788091012           1.7730084056084482e-16      -5.6050977934952066e-19        14                             5                                 8                                11                            0                                24                               5.8353749753652228e-17          1.0002204902798484e-16             160.97441578802301                     161.29939712195343                       163.31134065760247            -8.3947062175862918e-18  200.99751242241783   200.00000000000003   20                   0                    2.7319747996794047e-17    21                           1                          4                    0.063809815862166441  0.013125936125795502  0.025407681173908406
              266331.89409244206          1.7677888980219159e-16      -5.2195075865323537e-19        15                             5                                 8                                12                            1                                25                               5.8696329021238389e-17          9.9982882807475361e-17             161.27455926433453                     161.29939712195343                       163.31134065760247            -9.5061745140586635e-18  200.99751242241783   200.00000000000003   20                   0                    2.7605852487536492e-17    22                           2                          4                    0.0722616907052374   0.014829971012312948  0.024549491550145148
              438960.79491462524          1.7668149239430792e-16      -9.7397407883674322e-20        16                             5                                 8                                12                            1                                26                               5.9399787831701752e-17          1.0025372567058338e-16             161.99037631380679                     161.99037631380679                       163.31134065760247            -1.1128401389961672e-17  200.99751242241783   200.00000000000003   20                   0                    2.8156380281984453e-17    23                           3                          4                    0.084599813063397297  0.017293917154674945  0.023246295733627582
              339131.09406337282          1.7662579778428221e-16      -5.5694610025704938e-20        16                             6                                 8                                12                            1                                27                               5.9106554435375647e-17          1.0010654581898782e-16             161.58299157845167                     161.99037631380679                       163.31134065760247            -1.0518083114847662e-17  200.99751242241783   200.00000000000003   20                   0                    2.7930780644766407e-17    24                           4                          4                    0.079957644299383748  0.016369818543670801  0.023743576183466994
              362086.43635780504          1.7399627700557028e-16      -2.6295207787119154e-18        16                             6                                 9                                13                            0                                28                               5.9106554435375647e-17          1.0010654581898782e-16             161.58299157845167                     161.58299157845167                       163.31134065760247            -1.3147603893559576e-17  251.24689052802228   250.00000000000003   25.000000000000004   0                    2.7930780644766407e-17    25                           0                          5                    0.079957644299383748  0.016369818543670801  0.023743576183466994
              292525.58160103357          1.7328035145009394e-16      -7.1592555547634094e-19        17                             7                                 9                                13                            0                                30                               5.946798988853886e-17          9.9748115706079999e-17             162.42873098480584                     162.42873098480584                       163.31134065760247            -1.4037823540430022e-17  251.24689052802228   250.00000000000003   25.000000000000004   0                    2.810206939590511e-17    26                           1                          5                    0.085382819724300757  0.017365499393073892  0.023353943946714334
              300377.59933350346          1.7249701182470522e-16      -7.8333962538872259e-19        18                             7                                 9                                14                            1                                31                               6.0317359695533211e-17          9.9366827849369662e-17             163.61424102044063                     163.61424102044063                       163.61424102044063            -1.5717903504631664e-17  251.24689052802228   250.00000000000003   25.000000000000004   0                    2.8530727784434008e-17    27                           2                          5                    0.095626356159397005  0.01919665972391453  0.022594805749229795
              452591.14486784616          1.722753132512008e-16      -2.216985735044251e-19        19                             7                                 9                                14                            1                                32                               6.1972659643309961e-17          9.9333507424108217e-17             165.51472307492475                     165.51472307492475                       165.51472307492475            -1.841117464802191e-17  251.24689052802228   250.00000000000003   25.000000000000004   0                    2.9380320831804539e-17    28                           3                          5                    0.11205318704295102  0.022073979745706462  0.021305065686953291
              364449.8346875523           1.7220768906533814e-16      -6.7624185862662394e-20        19                             8                                 9                                14                            1                                33                               6.1394547373207193e-17          9.9265358707949726e-17             164.89542949400106                     165.51472307492475                       165.51472307492475            -1.7534365137070503e-17  251.24689052802228   250.00000000000003   25.000000000000004   0                    2.9082148121251713e-17    29                           4                          5                    0.10670461196638881  0.021144534530881456  0.02173451008943008
              383455.0216352478           1.6870081603792403e-16      -3.5068730274141e-18        19                             8                                 10                               15                            0                                34                               6.1394547373207193e-17          9.9265358707949726e-17             164.89542949400106                     164.89542949400106                       165.51472307492475            -2.1041238164484603e-17  301.49626863362676   300                  30.000000000000004   0                    2.9082148121251713e-17    30                           0                          6                    0.10670461196638881  0.021144534530881456  0.02173451008943008
              346707.98658358742          1.6756525305086798e-16      -1.1355629870560586e-18        20                             9                                 10                               15                            0                                36                               6.2094943349104018e-17          9.8390063824000375e-17             164.77328212516804                     164.89542949400106                       165.51472307492475            -2.2458756124814308e-17  301.49626863362676   300                  30.000000000000004   0                    2.9539002002577891e-17    31                           1                          6                    0.11391229945801803  0.02237749929824662  0.021385487188270463
              336921.35918943369          1.6648600433475779e-16      -1.0792487161101855e-18        21                             9                                 10                               16                            1                                37                               6.366094677104286e-17          9.7516126130819153e-17             164.80469146434226                     164.89542949400106                       165.51472307492475            -2.5095787244140232e-17  301.49626863362676   300                  30.000000000000004   0                    3.0404718677036005e-17    32                           2                          6                    0.12733260946458935  0.024553855443185998  0.020708253289204438
              465867.03768898034          1.6641922489445316e-16      -6.677944030462388e-20        22                             9                                 10                               16                            1                                38                               6.5289643934576503e-17          9.7293755058840779e-17             165.47310904329404                     165.47310904329404                       165.51472307492475            -2.7514925995109846e-17  301.49626863362676   300                  30.000000000000004   0                    3.1350751896145738e-17    33                           3                          6                    0.13964877615536198  0.026502895397230757  0.020036724114105411
              382581.96917627053          1.6633906362937647e-16      -8.016126507670508e-20        22                             10                                10                               16                            1                                39                               6.4576418134191176e-17          9.7319537385639198e-17             165.14678513529086                     165.47310904329404                       165.51472307492475            -2.648870677257278e-17  301.49626863362676   300                  30.000000000000004   0                    3.0931814882118861e-17    34                           4                          6                    0.13442362760258691  0.02568135554547863  0.020327411529789952
# Table End
