# ODT 1.0
# Table Start
# Title: mmArchive Data Table, Wed Aug 26 18:20:36 EDT 2020
# Columns: {Oxs_CGEvolve:evolve:Max mxHxm} {Oxs_CGEvolve:evolve:Total energy} {Oxs_CGEvolve:evolve:Delta E} {Oxs_CGEvolve:evolve:Bracket count} {Oxs_CGEvolve:evolve:Line min count} {Oxs_CGEvolve:evolve:Conjugate cycle count} {Oxs_CGEvolve:evolve:Cycle count} {Oxs_CGEvolve:evolve:Cycle sub count} {Oxs_CGEvolve:evolve:Energy calc count} Oxs_UniformExchange::Energy {Oxs_UniformExchange::Max Spin Ang} {Oxs_UniformExchange::Stage Max Spin Ang} {Oxs_UniformExchange::Run Max Spin Ang} Oxs_Demag::Energy    Oxs_UZeeman::Energy  Oxs_UZeeman::B       Oxs_UZeeman::Bx      Oxs_UZeeman::By      Oxs_UZeeman::Bz      Oxs_MinDriver::Iteration {Oxs_MinDriver::Stage iteration} Oxs_MinDriver::Stage Oxs_MinDriver::mx    Oxs_MinDriver::my    Oxs_MinDriver::mz   
# Units:                 A/m                               J                                J                               {}                                   {}                                      {}                                     {}                                  {}                                     {}                                 J                              deg                                    deg                                      deg                           J                     J                 mT                   mT                   mT                   mT                        {}                           {}                         {}                 {}                   {}                   {}           
                 2278283.4086862137                1.662796196055418e-016             1.662796196055418e-016              0                                    0                                       1                                      1                                   0                                      1                                 1.034622117535285e-016             90                                     90                                       90                             6.2817407852013292e-017  0                    0                    0                    0                    0                      0                            0                          0                    7.0155075572938932e-018 -1.6755799945768936e-018  0.047146401985111663
                 2277328.3375051599                1.6615601928748338e-016            -1.2360031805842006e-019              1                                    0                                       1                                      1                                   0                                      2                                 1.0334468459642194e-016             89.958425831359691                     90                                       90                             6.2811334691061446e-017  0                    0                    0                    0                    0                      1                            1                          0                    7.0073475558076893e-018 -1.5332682738564714e-018  0.047150669130377028
                 2030243.852493346                 1.4325563692940338e-016            -2.2900382358079996e-017              2                                    0                                       1                                      1                                   0                                      3                                 8.1655415080211098e-017             81.619488000542972                     90                                       90                             6.1600221849192282e-017  0                    0                    0                    0                    0                      2                            2                          0                    7.1609082049779898e-018 -1.6791957953704928e-018  0.047831187161977616
                 1651790.4969454729                1.2482153877702846e-016            -1.8434098152374916e-017              3                                    0                                       2                                      2                                   0                                      4                                 6.4467220849327622e-017             72.604187476598653                     90                                       90                             6.0354317927700842e-017  0                    0                    0                    0                    0                      3                            3                          0                    7.1218961249489155e-018 -1.6204331783208385e-018  0.048203419666494322
                 1183922.1444551996                1.1040156163982225e-016            -1.441997713720621e-017              4                                    0                                       3                                      3                                   0                                      5                                 5.14217853274263e-017             62.438150246507682                     90                                       90                             5.8979776312395954e-017  0                    0                    0                    0                    0                      4                            4                          0                    7.1417809631418301e-018 -1.655689646592294e-018  0.048163844172097584
                 1196975.9739398293                1.1015311326604491e-016            -2.484483737773444e-019              4                                    0                                       4                                      4                                   0                                      6                                 5.14217853274263e-017             62.438150246507682                     62.438150246507682                       90                             5.8979776312395954e-017 -2.4844837377734859e-019  20.199009876724155   20                   2                    2                      5                            0                          1                    7.1417809631418301e-018 -1.655689646592294e-018  0.048163844172097584
                 785852.85802524094                9.9747999196694481e-017            -1.0405114069350429e-017              5                                    0                                       4                                      4                                   0                                      7                                 4.2602944376864939e-017             51.729437258164367                     62.438150246507682                       90                             5.7448434641470718e-017 -3.0337982164117654e-019  20.199009876724155   20                   2                    2                      6                            1                          1                    0.0010907767059745695  0.00011293667863457682  0.047792071858932167
                 766735.21858131059                9.8869654141219905e-017            -8.7834505547457603e-019              6                                    0                                       4                                      4                                   0                                      8                                 4.1885166496078672e-017             50.62453344172912                      62.438150246507682                       90                             5.7293459953624022e-017 -3.0897230848278905e-019  20.199009876724155   20                   2                    2                      7                            2                          1                    0.001203603981272312  0.00012469765296214315  0.047736189582001813
                 582455.04649941763                9.1237401456924432e-017            -7.6322526842954734e-018              7                                    0                                       5                                      5                                   0                                      9                                 3.6232607393314172e-017             39.87386062771786                      62.438150246507682                       90                             5.5384145723574381e-017 -3.7935165996413119e-019  20.199009876724155   20                   2                    2                      8                            3                          1                    0.0026612562158213515  0.00027692943780625715  0.046651075239458502
                 553170.38578960113                8.9718446345441177e-017            -1.5189551114832543e-018              8                                    0                                       5                                      5                                   0                                      10                                3.5194934347271327e-017             37.221100078813272                     62.438150246507682                       90                             5.4920015021492704e-017 -3.96503023322851e-019  20.199009876724155   20                   2                    2                      9                            4                          1                    0.0030213280976393165  0.00031490759432380763  0.046337316881138436
                 562005.55957670929                8.932194332211833e-017            -3.9650302332284778e-019              8                                    0                                       6                                      6                                   0                                      11                                3.5194934347271327e-017             37.221100078813272                     37.221100078813272                       90                             5.4920015021492704e-017 -7.93006046645702e-019  40.39801975344831    40                   4                    4                      10                           0                          2                    0.0030213280976393165  0.00031490759432380763  0.046337316881138436
                 444666.13849287585                8.2748607038021994e-017            -6.5733362840963355e-018              9                                    0                                       6                                      6                                   0                                      12                                3.1675278869807668e-017             29.016812780895844                     37.221100078813272                       90                             5.2312233651726566e-017 -1.2389054835122447e-018  40.39801975344831    40                   4                    4                      11                           1                          2                    0.0074823248536486885  0.00079101961145644766  0.04447194884882355
                 437883.38137699792                8.2236336267614845e-017            -5.1227077040714906e-019              10                                   0                                       6                                      6                                   0                                      13                                3.1434929393049094e-017             28.269670882049663                     37.221100078813272                       90                             5.2080513452130091e-017 -1.2791065775643472e-018  40.39801975344831    40                   4                    4                      12                           2                          2                    0.0078862830391352844  0.00083468913123657771  0.044285360591820769
                 337312.19695086335                7.669341930441886e-017            -5.5429169631959851e-018              11                                   0                                       7                                      7                                   0                                      14                                2.9481371498801941e-017             24.031476063045655                     37.221100078813272                       90                             4.9053510593283551e-017 -1.8414627876666274e-018  40.39801975344831    40                   4                    4                      13                           3                          2                    0.013566774104905147  0.0014488184438779137  0.041375103393491541
                 335866.70560198964                7.6563615239719121e-017            -1.2980406469973855e-019              12                                   0                                       7                                      7                                   0                                      15                                2.9444379273212271e-017             23.918274751879419                     37.221100078813272                       90                             4.8975525292262878e-017 -1.8562893257560331e-018  40.39801975344831    40                   4                    4                      14                           4                          2                    0.013717064736163347  0.0014653130790484501  0.041292828113524131
                 349639.93827681663                7.5635470576841099e-017            -9.2814466287802272e-019              12                                   0                                       8                                      8                                   0                                      16                                2.9444379273212271e-017             23.918274751879419                     23.918274751879419                       90                             4.8975525292262878e-017 -2.7844339886340497e-018  60.597029630172472   60.000000000000007   6                    6                      15                           0                          3                    0.013717064736163347  0.0014653130790484501  0.041292828113524131
                 284789.76867869642                7.0235785025729145e-017            -5.3996855511119536e-018              13                                   0                                       8                                      8                                   0                                      17                                2.8655484933132562e-017             22.000627213260966                     23.918274751879419                       90                             4.597412385063993e-017 -4.3938237580433475e-018  60.597029630172472   60.000000000000007   6                    6                      16                           1                          3                    0.024293267989729878  0.0026423402422498525  0.038351763232772687
                 284692.48829005827                7.0226735156446284e-017            -9.0498692828613845e-021              14                                   0                                       8                                      8                                   0                                      18                                2.8654839452617502e-017             22.004481342864263                     23.918274751879419                       90                             4.5968743018452319e-017 -4.3968473146235301e-018  60.597029630172472   60.000000000000007   6                    6                      17                           2                          3                    0.024313169798771121  0.0026445932979009845  0.038345872862413637
                 331074.49259926012                6.5994888765318196e-017            -4.2318463911280882e-018              15                                   0                                       9                                      9                                   0                                      19                                2.891009822527193e-017             24.163312987535804                     24.163312987535804                       90                             4.3264236512377394e-017 -6.1794459723311293e-018  60.597029630172472   60.000000000000007   6                    6                      18                           3                          3                    0.036027906931959362  0.0039587051653408121  0.035075059748621677
                 839922.89505399077                6.4944296562556284e-017            -1.0505922027619112e-018              16                                   0                                       10                                     10                                  0                                      20                                3.0821939538519184e-017             27.629515176142451                     27.629515176142451                       90                             4.1673933072465446e-017 -7.5515760484283421e-018  60.597029630172472   60.000000000000007   6                    6                      19                           4                          3                    0.045016336406137912  0.0049652850137585818  0.032850572416561349
                 842444.21543125564                6.2427104546413511e-017            -2.5171920161427735e-018              16                                   0                                       11                                     11                                  0                                      21                                3.0821939538519184e-017             27.629515176142451                     27.629515176142451                       90                             4.1673933072465446e-017 -1.0068768064571122e-017  80.796039506896619   80                   8                    8                      20                           0                          4                    0.045016336406137912  0.0049652850137585818  0.032850572416561349
                 438168.19177543587                5.9788144576210531e-017            -2.6389599702029801e-018              17                                   0                                       11                                     11                                  0                                      22                                2.9582948085319782e-017             26.865329234232426                     27.629515176142451                       90                             4.1268267970051714e-017 -1.1063071479160967e-017  80.796039506896619   80                   8                    8                      21                           1                          4                    0.049812290823734791  0.0055178508311557791  0.03252701965944324
                 277666.3323041441                 5.9655750951224287e-017            -1.3239362498624385e-019              17                                   1                                       11                                     11                                  0                                      23                                2.9210142915021013e-017             26.676750522824477                     27.629515176142451                       90                             4.1331830095361039e-017 -1.0886222059157767e-017  80.796039506896619   80                   8                    8                      22                           2                          4                    0.04895809574012485  0.0054189891962087315  0.03259688862071921
                 208587.62636536115                5.817040301714412e-017            -1.4853479340801671e-018              18                                   1                                       11                                     12                                  1                                      24                                2.9378429030993476e-017             27.691112244311277                     27.691112244311277                       90                             4.0894494021878294e-017 -1.2102520035727652e-017  80.796039506896619   80                   8                    8                      23                           3                          4                    0.054827027282250064  0.0060953820271847465  0.03217862417712767
                 339080.96097220259                5.537998751017147e-017            -2.7904155069726502e-018              19                                   1                                       11                                     12                                  1                                      25                                3.0089343680156622e-017             30.847440836915673                     30.847440836915673                       90                             4.0059205929362178e-017 -1.4768562099347328e-017  80.796039506896619   80                   8                    8                      24                           4                          4                    0.06769711884403927  0.0076046188157361415  0.031177241138108033
                 345135.58850597247                5.1687846985334642e-017            -3.692140524836828e-018              19                                   1                                       12                                     13                                  0                                      26                                3.0089343680156622e-017             30.847440836915673                     30.847440836915673                       90                             4.0059205929362178e-017 -1.8460702624184162e-017  100.99504938362078   100                  10                   10                     25                           0                          5                    0.06769711884403927  0.0076046188157361415  0.031177241138108033
                 1105532.3813190721                5.0173442835712053e-017            -1.5144041496225882e-018              20                                   1                                       12                                     13                                  0                                      27                                3.2146495318705462e-017             33.369308418895244                     33.369308418895244                       90                             3.999677471951373e-017 -2.1969827202507142e-017  100.99504938362078   100                  10                   10                     26                           1                          5                    0.081115968477289926  0.0091854413291119902  0.031462690372366001
                 660602.39064569888                4.9779527479063512e-017            -3.9391535664854145e-019              20                                   2                                       12                                     13                                  0                                      28                                3.0668570638662325e-017             31.876553740392502                     33.369308418895244                       90                             3.9988899365338264e-017 -2.0877942524937077e-017  100.99504938362078   100                  10                   10                     27                           2                          5                    0.07693893398795755  0.0086905807925451786  0.031393657372896108
                 662936.57487647166                4.4474280125058013e-017            -5.3052473540054992e-018              21                                   2                                       12                                     14                                  1                                      29                                3.1983861399635246e-017             35.007004598644919                     35.007004598644919                       90                             4.0066868711033353e-017 -2.7576449985610586e-017  100.99504938362078   100                  10                   10                     28                           3                          5                    0.1025611852016898   0.011738893060485195  0.031835436126501034
                 963206.1671152222                 4.3333194593008162e-017            -1.1410855320498511e-018              22                                   2                                       13                                     15                                  0                                      30                                3.2233411422247764e-017             33.411222837246761                     35.007004598644919                       90                             4.015629926406833e-017 -2.9056516093307926e-017  100.99504938362078   100                  10                   10                     29                           4                          5                    0.10822016047021489  0.012364663814448932  0.0320046097909365 
                 967072.08416402375                3.7521891374346575e-017            -5.8113032186615865e-018              22                                   2                                       14                                     16                                  0                                      31                                3.2233411422247764e-017             33.411222837246761                     33.411222837246761                       90                             4.015629926406833e-017 -3.4867819311969519e-017  121.19405926034494   120.00000000000001   12                   12                     30                           0                          6                    0.10822016047021489  0.012364663814448932  0.0320046097909365 
                 910147.70865588298                3.5952549562597496e-017            -1.5693418117490787e-018              23                                   2                                       14                                     16                                  0                                      32                                3.2044228015644923e-017             33.986883106464639                     33.986883106464639                       90                             4.0362507695982184e-017 -3.645418614902961e-017  121.19405926034494   120.00000000000001   12                   12                     31                           1                          6                    0.11324916953526397  0.012949060671093924  0.032385254271112524
                 377279.74192284781                3.5429287510334536e-017            -5.2326205226296039e-019              23                                   3                                       14                                     16                                  0                                      33                                3.1087578831604038e-017             33.734963256927806                     33.986883106464639                       90                             4.0269962365088003e-017 -3.5928253686357506e-017  121.19405926034494   120.00000000000001   12                   12                     32                           2                          6                    0.11158110881558382  0.012754745873963955  0.032267424550296818
                 331262.40764545754                3.3949378567911856e-017            -1.4799089424226799e-018              24                                   3                                       14                                     17                                  1                                      34                                3.1097766868213033e-017             34.088244067128073                     34.088244067128073                       90                             4.049884631610431e-017 -3.7647234616405493e-017  121.19405926034494   120.00000000000001   12                   12                     33                           3                          6                    0.11703277826744712  0.013385645182771402  0.032659692244775003
                 683751.08794767165                3.1721808114315164e-017            -2.2275704535966918e-018              25                                   3                                       14                                     17                                  1                                      35                                3.3102536237621315e-017             35.509575945406077                     35.509575945406077                       90                             4.1242266847779052e-017 -4.2622994971085209e-017  121.19405926034494   120.00000000000001   12                   12                     34                           4                          6                    0.13282278716038706  0.015226095524915219  0.033684776508944185
# Table End
