# ODT 1.0
# Table Start
# Title: mmArchive Data Table, Wed Jun 11 15:37:38 EDT 2014
# Columns: {Oxs_CGEvolve:evolve:Max mxHxm} {Oxs_CGEvolve:evolve:Total energy} {Oxs_CGEvolve:evolve:Delta E} {Oxs_CGEvolve:evolve:Bracket count} {Oxs_CGEvolve:evolve:Line min count} {Oxs_CGEvolve:evolve:Conjugate cycle count} {Oxs_CGEvolve:evolve:Cycle count} {Oxs_CGEvolve:evolve:Cycle sub count} {Oxs_CGEvolve:evolve:Energy calc count} Oxs_UniformExchange::Energy {Oxs_UniformExchange::Max Spin Ang} {Oxs_UniformExchange::Stage Max Spin Ang} {Oxs_UniformExchange::Run Max Spin Ang} Oxs_Demag::Energy    Oxs_UZeeman::Energy  Oxs_UZeeman::B       Oxs_UZeeman::Bx      Oxs_UZeeman::By      Oxs_UZeeman::Bz      Oxs_MinDriver::Iteration {Oxs_MinDriver::Stage iteration} Oxs_MinDriver::Stage Oxs_MinDriver::mx    Oxs_MinDriver::my    Oxs_MinDriver::mz   
# Units:                 A/m                               J                                J                               {}                                   {}                                      {}                                     {}                                  {}                                     {}                                 J                              deg                                    deg                                      deg                           J                     J                 mT                   mT                   mT                   mT                        {}                           {}                         {}                 {}                   {}                   {}           
                 2188021.646375373                 2.5409754192759028e-16             2.5409754192759028e-16              0                                    0                                       1                                      1                                   0                                      1                                 1.9686561031648245e-16             90                                     90                                       90                             5.7231931611107839e-17  0                    0                    0                    0                    0                      0                            0                          0                    0.073659673659673658  7.8093449862677675e-21  3.1179410258004396e-21
                 2186173.8231540071                2.5388499016311823e-16            -2.1255176447205447e-19              1                                    0                                       1                                      1                                   0                                      2                                 1.9665832743772868e-16             89.953709520429527                     90                                       90                             5.7226662725389558e-17  0                    0                    0                    0                    0                      1                            1                          0                    0.073687226561198763 -3.8090225094738702e-20 -1.9026479433669349e-21
                 1799213.9315814751                2.1495090077416116e-16            -3.8934089388957077e-17              2                                    0                                       1                                      1                                   0                                      3                                 1.5870103589900182e-16             80.667406230546732                     90                                       90                             5.6249864875159349e-17  0                    0                    0                    0                    0                      2                            2                          0                    0.078743474523727763 -6.6267633701076007e-20  4.449173482367294e-21
                 1405318.4866199342                1.8292638416165139e-16            -3.2024516612509758e-17              3                                    0                                       2                                      2                                   0                                      4                                 1.2750047038184404e-16             69.982448221694142                     90                                       90                             5.5425913779807347e-17  0                    0                    0                    0                    0                      3                            3                          0                    0.083818786076373358 -2.2939433310669903e-20 -4.2876864969672715e-21
                 918210.4859824283                 1.5999361343586277e-16            -2.293277072578862e-17              4                                    0                                       3                                      3                                   0                                      5                                 1.0520705502200351e-16             58.108255642831189                     90                                       90                             5.4786558413859271e-17  0                    0                    0                    0                    0                      4                            4                          0                    0.088740789721152111  8.8155331260679099e-21 -7.1965225801343487e-21
                 932723.45226021321                1.5694802953263285e-16            -3.0455839032299412e-18              4                                    0                                       4                                      4                                   0                                      6                                 1.0520705502200351e-16             58.108255642831189                     58.108255642831189                       90                             5.4786558413859271e-17 -3.0455839032299412e-18  20.199009876724158   20                   2                    2                      5                            0                          1                    0.088740789721152111  8.8155331260679099e-21 -7.1965225801343487e-21
                 628705.47147307196                1.4218835440071376e-16            -1.4759675131919091e-17              5                                    0                                       4                                      4                                   0                                      7                                 9.1143072028516229e-17             46.063092556345495                     58.108255642831189                       90                             5.4331699121535862e-17 -3.2864167493383475e-18  20.199009876724158   20                   2                    2                      6                            1                          1                    0.095731993559655559  0.00013005238550316985  0.00013064993703998571
                 628276.50615400774                1.3961777188582866e-16            -2.5705825148850839e-18              6                                    0                                       4                                      4                                   0                                      8                                 8.8714139329051081e-17             43.593915974849978                     58.108255642831189                       90                             5.4242718687403923e-17 -3.3390861306263399e-18  20.199009876724158   20                   2                    2                      7                            2                          1                    0.097260562118484287  0.00016033005097903198  0.00016124300262200151
                 461846.70827057504                1.3073475608361414e-16            -8.8830158022145331e-18              7                                    0                                       5                                      5                                   0                                      9                                 8.0565835214202723e-17             37.33833715559679                      58.108255642831189                       90                             5.3820174142908029e-17 -3.6512532734966158e-18  20.199009876724158   20                   2                    2                      8                            3                          1                    0.10631823262279601  0.00035210938505442484  0.00035055083704820954
                 431578.67283187015                1.295355032543742e-16            -1.1992528292399293e-18              8                                    0                                       5                                      5                                   0                                      10                                7.9493582034688836e-17             36.163353402151401                     58.108255642831189                       90                             5.3749229898641889e-17 -3.7073086789565314e-18  20.199009876724158   20                   2                    2                      9                            4                          1                    0.10794442605501094  0.00038783641556454937  0.00038604958343183373
                 446029.89204519114                1.2582819457541768e-16            -3.7073086789565314e-18              8                                    0                                       6                                      6                                   0                                      11                                7.9493582034688836e-17             36.163353402151401                     36.163353402151401                       90                             5.3749229898641889e-17 -7.4146173579130629e-18  40.398019753448317   40                   4                    4                      10                           0                          2                    0.10794442605501094  0.00038783641556454937  0.00038604958343183373
                 274114.3520680645                 1.19900986964351e-16            -5.927207611066664e-18              9                                    0                                       6                                      6                                   0                                      12                                7.5097707803279001e-17             30.197693951184498                     36.163353402151401                       90                             5.3415640318701565e-17 -8.6123611576295585e-18  40.398019753448317   40                   4                    4                      11                           1                          2                    0.12528206075013665  0.00094920527646958231  0.00094480808894083625
                 265506.70307462325                1.19305819152028e-16            -5.9516781232301863e-19              10                                   0                                       6                                      6                                   0                                      13                                7.4689623486684546e-17             30.314069253492629                     36.163353402151401                       90                             5.337831123733286e-17 -8.76211557198942e-18  40.398019753448317   40                   4                    4                      12                           2                          2                    0.12744961060735235  0.0010200440700809642  0.0010158387825928159
                 197105.21392422699                1.1464484238011012e-16            -4.6609767719178642e-18              11                                   0                                       7                                      7                                   0                                      14                                7.1965742564833326e-17             31.079678637331245                     36.163353402151401                       90                             5.3070476821405646e-17 -1.0391377006128852e-17  40.398019753448317   40                   4                    4                      13                           3                          2                    0.15104414258312351  0.0017499105636580433  0.0017039150807552006
                 200270.86392228963                1.133039226878474e-16            -1.340919692262711e-18              12                                   0                                       7                                      7                                   0                                      15                                7.126970095921155e-17             31.969767495824527                     36.163353402151401                       90                             5.2980227207273448e-17 -1.0946005478637579e-17  40.398019753448317   40                   4                    4                      14                           4                          2                    0.15907557438768619  0.0020000498307305666  0.0019419741591872976
                 215900.27194068927                1.0783091994852863e-16            -5.4730027393187893e-18              12                                   0                                       8                                      8                                   0                                      16                                7.126970095921155e-17             31.969767495824527                     31.969767495824527                       90                             5.2980227207273448e-17 -1.6419008217956368e-17  60.597029630172472   60.000000000000007   6.0000000000000009   6.0000000000000009     15                           0                          3                    0.15907557438768619  0.0020000498307305666  0.0019419741591872976
                 699688.62433468224                1.0209757626829796e-16            -5.7333436802306632e-18              13                                   0                                       8                                      8                                   0                                      17                                7.0663799542177244e-17             33.610006361343665                     33.610006361343665                       90                             5.2983953201133025e-17 -2.1550176475012314e-17  60.597029630172472   60.000000000000007   6.0000000000000009   6.0000000000000009     16                           1                          3                    0.20857226535855172  0.0037519023976804824  0.00358842721535613
                 647822.77446132991                9.8843716085174198e-17            -3.2538601831237569e-18              14                                   0                                       9                                      9                                   0                                      18                                6.9030090174185091e-17             33.796287356153364                     33.796287356153364                       90                             5.2908502011497377e-17 -2.3094876100508261e-17  60.597029630172472   60.000000000000007   6.0000000000000009   6.0000000000000009     17                           2                          3                    0.22348852169227137  0.0042277687143164305  0.0039790987169185284
                 248810.52681780583                9.7408329883957643e-17            -1.4353862012165605e-18              14                                   1                                       9                                      9                                   0                                      19                                6.7094643683351002e-17             29.488161703703312                     33.796287356153364                       90                             5.2869589234411881e-17 -2.2555903033805234e-17  60.597029630172472   60.000000000000007   6.0000000000000009   6.0000000000000009     18                           3                          3                    0.21828438813731968  0.0040596515134593471  0.003840740015949791
                 170714.66785111852                9.4886089386947176e-17            -2.5222404970104685e-18              15                                   1                                       9                                      10                                  1                                      20                                6.6134362390113961e-17             29.634920060131776                     33.796287356153364                       90                             5.2815345316689678e-17 -2.406361831985646e-17  60.597029630172472   60.000000000000007   6.0000000000000009   6.0000000000000009     19                           4                          3                    0.23284458432478694  0.0045207712027398733  0.0042146520467154043
                 185218.37593325754                8.6864883280328355e-17            -8.0212061066188195e-18              15                                   1                                       10                                     11                                  0                                      21                                6.6134362390113961e-17             29.634920060131776                     29.634920060131776                       90                             5.2815345316689678e-17 -3.2084824426475278e-17  80.796039506896633   80                   8                    8                      20                           0                          4                    0.23284458432478694  0.0045207712027398733  0.0042146520467154043
                 188950.0488528992                 8.314724893481238e-17            -3.717634345515974e-18              16                                   1                                       10                                     11                                  0                                      22                                6.490865762772983e-17             28.205231856610222                     29.634920060131776                       90                             5.286432942116448e-17 -3.4625738114081935e-17  80.796039506896633   80                   8                    8                      21                           1                          4                    0.25122724828514886  0.0051909988948953467  0.0048076512724046757
                 861736.1628918451                 7.8542272358603512e-17            -4.6049765762088689e-18              17                                   1                                       10                                     11                                  0                                      23                                6.6803233912598869e-17             33.479256153978646                     33.479256153978646                       90                             5.3232093444999229e-17 -4.149305499899458e-17  80.796039506896633   80                   8                    8                      22                           2                          4                    0.30089988861540234  0.0070460264271652896  0.0064678350145699918
                 513176.63969661755                7.189410651761794e-17            -6.6481658409855782e-18              18                                   1                                       11                                     12                                  0                                      24                                6.2227414529169404e-17             30.086951240258593                     33.479256153978646                       90                             5.3133093337875814e-17 -4.3466401349427278e-17  80.796039506896633   80                   8                    8                      23                           3                          4                    0.31518845539964924  0.0075303596739417188  0.0068439258857481691
                 244217.93780979194                7.1080475755887211e-17            -8.1363076173072061e-19              18                                   2                                       11                                     12                                  0                                      25                                6.0982517383447179e-17             26.740424405381553                     33.479256153978646                       90                             5.3090591766342541e-17 -4.2992633393902502e-17  80.796039506896633   80                   8                    8                      24                           4                          4                    0.3117583388266939   0.0074122347974645685  0.0067521474704518823
                 257076.74236692293                6.0332317407411581e-17            -1.0748158348475626e-17              18                                   2                                       12                                     13                                  0                                      26                                6.0982517383447179e-17             26.740424405381553                     26.740424405381553                       90                             5.3090591766342541e-17 -5.3740791742378133e-17  100.99504938362078   100.00000000000001   10                   10                     25                           0                          5                    0.3117583388266939   0.0074122347974645685  0.0067521474704518823
                 268921.90388590051                5.6557050215982513e-17            -3.7752671914290696e-18              19                                   2                                       12                                     13                                  0                                      27                                5.9830669378274e-17             25.656122569612823                     26.740424405381553                       90                             5.3198582754979094e-17 -5.6472201917270588e-17  100.99504938362078   100.00000000000001   10                   10                     26                           1                          5                    0.32756236817391798  0.0080220228192254221  0.0072751530913952771
                 1174261.3193486005                5.1233233265364738e-17            -5.3238169506177776e-18              20                                   2                                       12                                     13                                  0                                      28                                6.0972472672998176e-17             30.580829491692551                     30.580829491692551                       90                             5.3625379902616528e-17 -6.3364619310249966e-17  100.99504938362078   100.00000000000001   10                   10                     27                           2                          5                    0.3674340311336588   0.0095964229349266052  0.0086401486101844067
                 748994.19798681291                4.5076542317381631e-17            -6.1566909479831092e-18              21                                   2                                       13                                     14                                  0                                      29                                5.6885565588744799e-17             24.917502098440547                     30.580829491692551                       90                             5.3612241825961017e-17 -6.5421265097324191e-17  100.99504938362078   100.00000000000001   10                   10                     28                           3                          5                    0.37933876381333947  0.010045918898894115  0.0089944789423138504
                 644889.92905675713                4.5045178381469163e-17            -3.1363935912468648e-20              21                                   3                                       13                                     14                                  0                                      30                                5.6728999090286696e-17             24.50851582856658                      30.580829491692551                       90                             5.3603790362043386e-17 -6.5287611070860925e-17  100.99504938362078   100.00000000000001   10                   10                     29                           4                          5                    0.37856517601781631  0.010016580560283709  0.0089709990553127721
                 651456.17516966921                3.1987656167296975e-17            -1.3057522214172184e-17              21                                   3                                       14                                     15                                  0                                      31                                5.6728999090286696e-17             24.50851582856658                      24.50851582856658                        90                             5.3603790362043386e-17 -7.8345133285033113e-17  121.19405926034494   120.00000000000001   12.000000000000002   12.000000000000002     30                           0                          6                    0.37856517601781631  0.010016580560283709  0.0089709990553127721
                 697667.41705776704                2.7796541054658118e-17            -4.191115112638859e-18              22                                   3                                       14                                     15                                  0                                      32                                5.5631293273418662e-17             24.11496313513074                      24.50851582856658                        90                             5.3800233773600747e-17 -8.1634985992361292e-17  121.19405926034494   120.00000000000001   12.000000000000002   12.000000000000002     31                           1                          6                    0.39441792772840595  0.010681154067724897  0.0095425403052316546
                 1363571.4872344546                2.6832259030650872e-17            -9.6428202400724799e-19              23                                   3                                       14                                     15                                  0                                      33                                5.6313888107030882e-17             29.912646566878738                     29.912646566878738                       90                             5.392901978980114e-17 -8.3410648866181156e-17  121.19405926034494   120.00000000000001   12.000000000000002   12.000000000000002     32                           2                          6                    0.4029733307428201   0.011043221146986588  0.0098571576224205266
                 678266.86398484907                2.2530855669983138e-17            -4.3014033606677314e-18              24                                   3                                       15                                     16                                  0                                      34                                5.4267535735197901e-17             24.401634916742143                     29.912646566878738                       90                             5.4050485907395506e-17 -8.5787165972610266e-17  121.19405926034494   120.00000000000001   12.000000000000002   12.000000000000002     33                           3                          6                    0.41442641064878299  0.011523654283721613  0.010255652816747757
                 614411.99153376033                1.8717812193135297e-17            -3.8130434768478422e-18              25                                   3                                       16                                     17                                  0                                      35                                5.3197509634225652e-17             23.309216069473024                     29.912646566878738                       90                             5.4234008416730649e-17 -8.8713705857821007e-17  121.19405926034494   120.00000000000001   12.000000000000002   12.000000000000002     34                           4                          6                    0.42853035970004866  0.012116877550089451  0.010743174333504772
# Table End
