# ODT 1.0
# Table Start
# Title: mmArchive Data Table, Wed Aug 26 18:20:40 EDT 2020
# Columns: {Oxs_CGEvolve:evolve:Max mxHxm} {Oxs_CGEvolve:evolve:Total energy} {Oxs_CGEvolve:evolve:Delta E} {Oxs_CGEvolve:evolve:Bracket count} {Oxs_CGEvolve:evolve:Line min count} {Oxs_CGEvolve:evolve:Conjugate cycle count} {Oxs_CGEvolve:evolve:Cycle count} {Oxs_CGEvolve:evolve:Cycle sub count} {Oxs_CGEvolve:evolve:Energy calc count} Oxs_UniformExchange::Energy {Oxs_UniformExchange::Max Spin Ang} {Oxs_UniformExchange::Stage Max Spin Ang} {Oxs_UniformExchange::Run Max Spin Ang} Oxs_Demag::Energy    Oxs_UZeeman::Energy  Oxs_UZeeman::B       Oxs_UZeeman::Bx      Oxs_UZeeman::By      Oxs_UZeeman::Bz      Oxs_MinDriver::Iteration {Oxs_MinDriver::Stage iteration} Oxs_MinDriver::Stage Oxs_MinDriver::mx    Oxs_MinDriver::my    Oxs_MinDriver::mz   
# Units:                 A/m                               J                                J                               {}                                   {}                                      {}                                     {}                                  {}                                     {}                                 J                              deg                                    deg                                      deg                           J                     J                 mT                   mT                   mT                   mT                        {}                           {}                         {}                 {}                   {}                   {}           
                 12482773.823479921                2.7517984856447791e-016             2.7517984856447791e-016              0                                    0                                       1                                      1                                   0                                      1                                 1.6853854257195118e-016             90                                     90                                       90                             1.0664130599252674e-016  0                    0                    0                    0                    0                      0                            0                          0                    0.063979526551503518 -1.1917115478125125e-017  6.5452487391025847e-017
                 12475362.278290054                2.75058332460687e-016            -1.2151610379090575e-019              1                                    0                                       1                                      1                                   0                                      2                                 1.6841472990641516e-016             89.950100278120161                     90                                       90                             1.0664360255427187e-016  0                    0                    0                    0                    0                      1                            1                          0                    0.063986515345267753 -2.383423095625025e-017  7.1131010373064598e-017
                 10617054.372709179                2.5251472638984711e-016            -2.2543606070839886e-017              2                                    0                                       1                                      1                                   0                                      3                                 1.4544450256523306e-016             79.950081561928485                     90                                       90                             1.0707022382461406e-016  0                    0                    0                    0                    0                      2                            2                          0                    0.065309990543802057 -2.383423095625025e-017  5.6326263764070532e-017
                 8300891.1152157802                2.333567332219731e-016            -1.9157993167874014e-017              3                                    0                                       2                                      2                                   0                                      4                                 1.2592975106678624e-016             70.508338149859313                     90                                       90                             1.0742698215518687e-016  0                    0                    0                    0                    0                      3                            3                          0                    0.066722055010712863 -4.7668461912500499e-017  6.6875209429307873e-017
                 5835347.7374587497                2.1738698436680356e-016            -1.5969748855169543e-017              4                                    0                                       3                                      3                                   0                                      5                                 1.0968372459503224e-016             61.794497795476929                     90                                       90                             1.0770325977177132e-016  0                    0                    0                    0                    0                      4                            4                          0                    0.068281401012493789 -1.1917115478125125e-017  7.1701990332191076e-017
                 5829406.4968081592                2.1651270275322509e-016            -8.742816135784681e-019              4                                    0                                       4                                      4                                   0                                      6                                 1.0968372459503224e-016             61.794497795476929                     61.794497795476929                       90                             1.0770325977177132e-016 -8.742816135784679e-019  20.199009876724155   20                   2                    2                      5                            0                          1                    0.068281401012493789 -1.1917115478125125e-017  7.1701990332191076e-017
                 3700274.9492381611                2.0432529754162002e-016            -1.2187405211605066e-017              5                                    0                                       4                                      4                                   0                                      7                                 9.7362689042596746e-017             53.890430769052763                     61.794497795476929                       90                             1.0786368930301699e-016 -9.010808039937167e-019  20.199009876724155   20                   2                    2                      6                            1                          1                    0.070370025801313199  2.3616822308140328e-005  2.0305147056443255e-005
                 3341054.826351942                 2.0267128274244261e-016            -1.6540147991774154e-018              6                                    0                                       4                                      4                                   0                                      8                                 9.569439037020968e-017             52.592074177930691                     61.794497795476929                       90                             1.0788218143372703e-016 -9.0528906149410061e-019  20.199009876724155   20                   2                    2                      7                            2                          1                    0.070697964193664073  2.7535244328692623e-005  2.3652245879812008e-005
                 2260512.3388950825                1.9351184848536475e-016            -9.1594342570778555e-018              7                                    0                                       5                                      5                                   0                                      9                                 8.6571699838581602e-017             45.483601721172199                     61.794497795476929                       90                             1.0788002661352096e-016 -9.3987796673781018e-019  20.199009876724155   20                   2                    2                      8                            3                          1                    0.073392994368271444  6.2413357350372262e-005  5.2410148348739612e-005
                 1929541.0449271076                1.9076405917508512e-016            -2.7477893102796316e-018              8                                    0                                       5                                      5                                   0                                      10                                8.385872598526081e-017             42.71286379960236                      61.794497795476929                       90                             1.0785822077790385e-016 -9.5288758807956149e-019  20.199009876724155   20                   2                    2                      9                            4                          1                    0.074406531156781849  7.625619053043382e-005  6.3714738409237218e-005
                 1925238.0509915694                1.8981117158700555e-016            -9.5288758807956766e-019              8                                    0                                       6                                      6                                   0                                      11                                8.385872598526081e-017             42.71286379960236                      42.71286379960236                        90                             1.0785822077790385e-016 -1.905775176159123e-018  40.39801975344831    40                   4                    4                      10                           0                          2                    0.074406531156781849  7.625619053043382e-005  6.3714738409237218e-005
                 1236648.7968363466                1.8221492472902991e-016            -7.5962468579756426e-018              9                                    0                                       6                                      6                                   0                                      12                                7.6694950066996259e-017             37.867209417525466                     42.71286379960236                        90                             1.0755817992877441e-016 -2.0382052667407526e-018  40.39801975344831    40                   4                    4                      11                           1                          2                    0.079555748060023565  0.00019956745160911626  0.00016219011254889446
                 1046102.3859624004                1.7981921450541296e-016            -2.3957102236169541e-018              10                                   0                                       6                                      6                                   0                                      13                                7.4475671657646407e-017             36.044833170631918                     42.71286379960236                        90                             1.074316677393761e-016 -2.0881248916095496e-018  40.39801975344831    40                   4                    4                      12                           2                          2                    0.08149651430366095  0.00024768492001587297  0.00020002571517978884
                 963871.11654150591                1.7214106494095537e-016            -7.6781495644575893e-018              11                                   0                                       7                                      7                                   0                                      14                                6.771888673548398e-017             32.105843643258666                     42.71286379960236                        90                             1.0672478834448122e-016 -2.3026101390098302e-018  40.39801975344831    40                   4                    4                      13                           3                          2                    0.089834269246472184  0.00046882680769211907  0.00035783208586597561
                 1245418.3288466225                1.691513626543961e-016            -2.9897022865592653e-018              12                                   0                                       7                                      7                                   0                                      15                                6.5151385016302778e-017             30.283091420711617                     42.71286379960236                        90                             1.0640128432584039e-016 -2.4013066877470681e-018  40.39801975344831    40                   4                    4                      14                           4                          2                    0.093670535319926446  0.00057400235435721642  0.00043100203314872573
                 1246066.5930657384                1.6795070931052257e-016            -1.2006533438735312e-018              12                                   0                                       8                                      8                                   0                                      16                                6.5151385016302778e-017             30.283091420711617                     30.283091420711617                       90                             1.0640128432584039e-016 -3.601960031620602e-018  60.597029630172472   60.000000000000007   6                    6                      15                           0                          3                    0.093670535319926446  0.00057400235435721642  0.00043100203314872573
                 4852841.2145717153                1.6311716697098459e-016            -4.8335423395379756e-018              13                                   0                                       8                                      8                                   0                                      17                                6.1602224551948957e-017             32.453503163649643                     32.453503163649643                       90                             1.0558076059938463e-016 -4.0658181803489881e-018  60.597029630172472   60.000000000000007   6                    6                      16                           1                          3                    0.10567649862456641  0.0009980067571232743  0.00070511500186658574
                 3826504.9572671577                1.6080460729460767e-016            -2.3125596763769278e-018              14                                   0                                       9                                      9                                   0                                      18                                5.9596342677209901e-017             30.709174372297635                     32.453503163649643                       90                             1.0539584253060863e-016 -4.1875779132108659e-018  60.597029630172472   60.000000000000007   6                    6                      17                           2                          3                    0.108828656846225    0.0011107094029774763  0.00076895050702255254
                 2982024.736167918                 1.6076298543796954e-016            -4.1621856638128968e-020              14                                   1                                       9                                      9                                   0                                      19                                5.9519041733323137e-017             28.826262448940021                     32.453503163649643                       90                             1.0541746053561167e-016 -4.1735168309652622e-018  60.597029630172472   60.000000000000007   6                    6                      18                           3                          3                    0.10846466868196426  0.001097483205451384  0.00076148956104179935
                 2661277.4824121059                1.5890027413272009e-016            -1.8627113052494508e-018              15                                   1                                       9                                      10                                  1                                      20                                5.8134139395849497e-017             28.593648751965336                     32.453503163649643                       90                             1.0513153869586345e-016 -4.3654039589928649e-018  60.597029630172472   60.000000000000007   6                    6                      19                           4                          3                    0.11343217155414316  0.0012776290854115469  0.00086093573783180115
                 2664875.657791628                 1.5744513947972246e-016            -1.4551346529976314e-018              15                                   1                                       10                                     11                                  0                                      21                                5.8134139395849497e-017             28.593648751965336                     28.593648751965336                       90                             1.0513153869586345e-016 -5.8205386119904863e-018  80.796039506896619   80                   8                    8                      20                           0                          4                    0.11343217155414316  0.0012776290854115469  0.00086093573783180115
                 4298593.8100806717                1.5598396548818985e-016            -1.4611739915326074e-018              16                                   1                                       10                                     11                                  0                                      22                                5.7174352762817792e-017             29.468457746118521                     29.468457746118521                       90                             1.0489277679114454e-016 -6.0831640657724805e-018  80.796039506896619   80                   8                    8                      21                           1                          4                    0.11852720814653533  0.0014861465193379505  0.00097967748174665882
                 3655988.2489724248                1.5596735582911131e-016            -1.660965907854198e-020              16                                   2                                       10                                     11                                  0                                      23                                5.711001379547087e-017             28.499369066786624                     29.468457746118521                       90                             1.0491548444782918e-016 -6.0581424141887409e-018  80.796039506896619   80                   8                    8                      22                           2                          4                    0.11804179679244638  0.0014661301325245267  0.00096832943745156594
                 4199928.076646354                 1.5263299466647701e-016            -3.3343611626342963e-018              17                                   2                                       10                                     12                                  1                                      24                                5.5072664630904458e-017             28.682740342326493                     29.468457746118521                       90                             1.0431194880251741e-016 -6.7516187669448764e-018  80.796039506896619   80                   8                    8                      23                           3                          4                    0.13149528047268616  0.0020240818550062599  0.0012768126532977076
                 6178216.7819470549                1.5224116394523042e-016            -3.9183072124658519e-019              18                                   2                                       10                                     12                                  1                                      25                                5.5112982052629434e-017             31.446006765681062                     31.446006765681062                       90                             1.0411456136574799e-016 -6.9863794731469992e-018  80.796039506896619   80                   8                    8                      24                           4                          4                    0.13604940121176309  0.0022156874973782693  0.0013810321998329429
                 6180122.014315784                 1.5049456907694367e-016            -1.7465948682867548e-018              18                                   2                                       11                                     13                                  0                                      26                                5.5112982052629434e-017             31.446006765681062                     31.446006765681062                       90                             1.0411456136574799e-016 -8.7329743414337494e-018  100.99504938362078   100                  10                   10                     25                           0                          5                    0.13604940121176309  0.0022156874973782693  0.0013810321998329429
                 3523926.565936327                 1.4782627678782787e-016            -2.6682922891157999e-018              19                                   2                                       11                                     13                                  0                                      27                                5.2782757216849787e-017             25.272522636980213                     31.446006765681062                       90                             1.039990728697462e-016 -8.9555532987681211e-018  100.99504938362078   100                  10                   10                     26                           1                          5                    0.13950281586743002  0.0023700236787452225  0.0014593861575499737
                 2696256.937126799                 1.4777766567510821e-016            -4.8611112719663656e-020              19                                   3                                       11                                     13                                  0                                      28                                5.2694606986874918e-017             24.761812074974404                     31.446006765681062                       90                             1.0401274407771363e-016 -8.9296853894803296e-018  100.99504938362078   100                  10                   10                     27                           2                          5                    0.13910149616637185  0.0023518465897810997  0.0014501924125884858
                 1669033.8493893759                1.4647067366651132e-016            -1.3069920085968876e-018              20                                   3                                       11                                     14                                  1                                      29                                5.188216530816634e-017             24.023206462888311                     31.446006765681062                       90                             1.0384252088104807e-016 -9.2540125227030805e-018  100.99504938362078   100                  10                   10                     28                           3                          5                    0.14413332143993265  0.0025798662521454531  0.0015638234115838388
                 2370555.9963443722                1.4644052212026962e-016            -3.0151546241694897e-020              21                                   4                                       11                                     14                                  1                                      31                                5.1939258655261359e-017             25.04614101714516                      31.446006765681062                       90                             1.03812345638572e-016 -9.3110821735637258e-018  100.99504938362078   100                  10                   10                     29                           4                          5                    0.14501870949334514  0.0026202253098018533  0.0015838641970575046
                 2373914.8767530383                1.4457830568555687e-016            -1.8622164347127572e-018              21                                   4                                       12                                     15                                  0                                      32                                5.1939258655261359e-017             25.04614101714516                      25.04614101714516                        90                             1.03812345638572e-016 -1.1173298608276472e-017  121.19405926034494   120.00000000000001   12                   12                     30                           0                          6                    0.14501870949334514  0.0026202253098018533  0.0015838641970575046
                 3560812.5639334298                1.4335537528281213e-016            -1.222930402744739e-018              22                                   4                                       12                                     15                                  0                                      33                                5.1399100749022391e-017             25.430040242484644                     25.430040242484644                       90                             1.0361585448845527e-016 -1.1659579954665536e-017  121.19405926034494   120.00000000000001   12                   12                     31                           1                          6                    0.15130296048760689  0.0029216000515899024  0.0017376079159722908
                 2536669.5017704959                1.4327869606135572e-016            -7.6679221456408846e-020              22                                   5                                       12                                     15                                  0                                      34                                5.1189281548852262e-017             23.817601796298021                     25.430040242484644                       90                             1.0365435505982583e-016 -1.1564940547322385e-017  121.19405926034494   120.00000000000001   12                   12                     32                           2                          6                    0.15007996391630801  0.0028626572891391673  0.0017076189407900461
                 2542926.5238170987                1.4080915136219293e-016            -2.4695446991627926e-018              23                                   5                                       12                                     16                                  1                                      35                                5.0148855223551812e-017             25.08543174590319                      25.430040242484644                       90                             1.0324024336894565e-016 -1.2579947230304543e-017  121.19405926034494   120.00000000000001   12                   12                     33                           3                          6                    0.16319689163685924  0.0034963410684956038  0.0020247080531917722
                 6455013.844844019                 1.4046023969769738e-016            -3.4891166449554345e-019              24                                   5                                       12                                     16                                  1                                      36                                5.1369510123988713e-017             30.116897818693793                     30.116897818693793                       90                             1.0277709629001907e-016 -1.3686366716310393e-017  121.19405926034494   120.00000000000001   12                   12                     34                           4                          6                    0.17749418369540373  0.0041961409469098163  0.0023709387653015465
# Table End
