# ODT 1.0
# Table Start
# Title: mmArchive Data Table, Wed Aug 17 23:55:27 EDT 2011
# Columns: {Oxs_CGEvolve:evolve:Max mxHxm} {Oxs_CGEvolve:evolve:Total energy} {Oxs_CGEvolve:evolve:Delta E} {Oxs_CGEvolve:evolve:Bracket count} {Oxs_CGEvolve:evolve:Line min count} {Oxs_CGEvolve:evolve:Conjugate cycle count} {Oxs_CGEvolve:evolve:Cycle count} {Oxs_CGEvolve:evolve:Cycle sub count} {Oxs_CGEvolve:evolve:Energy calc count} Oxs_UniformExchange::Energy {Oxs_UniformExchange::Max Spin Ang} {Oxs_UniformExchange::Stage Max Spin Ang} {Oxs_UniformExchange::Run Max Spin Ang} Oxs_Demag::Energy    Oxs_UZeeman::Energy  Oxs_UZeeman::B       Oxs_UZeeman::Bx      Oxs_UZeeman::By      Oxs_UZeeman::Bz      Oxs_MinDriver::Iteration {Oxs_MinDriver::Stage iteration} Oxs_MinDriver::Stage Oxs_MinDriver::mx    Oxs_MinDriver::my    Oxs_MinDriver::mz   
# Units:                 A/m                               J                                J                               {}                                   {}                                      {}                                     {}                                  {}                                     {}                                 J                              deg                                    deg                                      deg                           J                     J                 mT                   mT                   mT                   mT                        {}                           {}                         {}                 {}                   {}                   {}           
                 2188021.6463745562                2.540975419286473e-16             2.540975419286473e-16              0                                    0                                       1                                      1                                   1                                      1                                 1.9686561031648242e-16             90                                     90                                       90                             5.7231931612164863e-17  0                    0                    0                    0                    0                      0                            0                          0                    0.073659673659673658  1.5993538531876388e-17 -5.6901719803229353e-18
                 2186173.8231531889                2.5388499016417525e-16            -2.1255176447204927e-19              1                                    0                                       1                                      1                                   1                                      2                                 1.9665832743772863e-16             89.953709520429499                     90                                       90                             5.7226662726446607e-17  0                    0                    0                    0                    0                      1                            1                          0                    0.073687226561198998  2.6369834262313264e-16 -3.1270505480537741e-17
                 2173110.9301706618                2.5240127442028548e-16            -1.4837157438897674e-18              2                                    0                                       1                                      1                                   1                                      3                                 1.9521140434180763e-16             89.629676984051116                     90                                       90                             5.7189870078477815e-17  0                    0                    0                    0                    0                      2                            2                          0                    0.073879477395200704  4.4919286109941263e-17 -3.8974710017234291e-17
                 2175099.5125820609                2.4986573075608219e-16            -2.5355436642032922e-18              2                                    0                                       2                                      2                                   2                                      4                                 1.9521140434180763e-16             89.629676984051116                     89.629676984051116                       90                             5.7189870078477815e-17 -2.5355436642032756e-18  20.199009876724155   20                   2                    2                      3                            0                          1                    0.073879477395200704  4.4919286109941263e-17 -3.8974710017234291e-17
                 2173213.2490973519                2.4965218591591314e-16            -2.1354484016904996e-19              3                                    0                                       2                                      2                                   0                                      5                                 1.9500418704192198e-16             89.582868179713202                     89.629676984051116                       90                             5.7184693230974149e-17 -2.5366943569829431e-18  20.199009876724155   20                   2                    2                      4                            1                          1                    0.073912937182099264  3.4575476731863772e-07  3.3982019767502592e-07
                 2159880.3580917311                2.4816158961378281e-16            -1.4905963021303363e-18              4                                    0                                       2                                      2                                   0                                      6                                 1.9355777130626382e-16             89.25520744129021                      89.629676984051116                       90                             5.7148546142458628e-17 -2.5447278349396496e-18  20.199009876724155   20                   2                    2                      5                            2                          1                    0.074146532979529431  2.7659190019878016e-06  2.718662058443989e-06
                 2161756.9890862461                2.4561686177884314e-16            -2.5447278349396658e-18              4                                    0                                       3                                      3                                   1                                      7                                 1.9355777130626382e-16             89.25520744129021                      89.25520744129021                        90                             5.7148546142458628e-17 -5.0894556698792992e-18  40.39801975344831    40                   4                    4                      6                            0                          2                    0.074146532979529431  2.7659190019878016e-06  2.718662058443989e-06
                 2159831.9216602831                2.454018956012232e-16            -2.1496617761994188e-19              5                                    0                                       3                                      3                                   0                                      8                                 1.9335060596592171e-16             89.207869869357296                     89.25520744129021                        90                             5.7143462116213816e-17 -5.0921724809123133e-18  40.39801975344831    40                   4                    4                      7                            1                          2                    0.074185975633009063  3.4615230527953639e-06  3.4023263875231027e-06
                 2147360.6114764423                2.4390142399537047e-16            -1.5004716058527273e-18              6                                    0                                       3                                      3                                   0                                      9                                 1.9190460488654122e-16             88.876507831544302                     89.25520744129021                        90                             5.7107966291785458e-17 -5.1111471829561871e-18  40.39801975344831    40                   4                    4                      8                            2                          2                    0.074461448116893744  8.3305043820605859e-06  8.1881746066582507e-06
                 2149137.6306147194                2.4134585040389242e-16            -2.5555735914780504e-18              6                                    0                                       4                                      4                                   1                                      10                                1.9190460488654122e-16             88.876507831544302                     88.876507831544302                       90                             5.7107966291785458e-17 -7.6667207744342806e-18  60.597029630172486   60.000000000000014   6.0000000000000009   6.0000000000000009     9                            0                          3                    0.074461448116893744  8.3305043820605859e-06  8.1881746066582507e-06
                 2147524.0400738087                2.4112914209528546e-16            -2.1670830860696417e-19              7                                    0                                       4                                      4                                   0                                      11                                1.9169758846832437e-16             88.828656125152435                     88.876507831544302                       90                             5.7102978671499859e-17 -7.6714250445387778e-18  60.597029630172486   60.000000000000014   6.0000000000000009   6.0000000000000009     10                           1                          3                    0.074506930336206256  9.3797585167740943e-06  9.2194181528055258e-06
                 2136098.4866779549                2.3961654808771579e-16            -1.5125940075696679e-18              8                                    0                                       4                                      4                                   0                                      12                                1.9025267892946627e-16             88.493695220620538                     88.876507831544302                       90                             5.7068159335735207e-17 -7.7042901774856442e-18  60.597029630172486   60.000000000000014   6.0000000000000009   6.0000000000000009     11                           2                          3                    0.074824676919878458  1.6724154250796324e-05  1.6438415189870508e-05
                 2137763.233995758                 2.3704845136188726e-16            -2.5680967258285306e-18              8                                    0                                       5                                      5                                   1                                      13                                1.9025267892946627e-16             88.493695220620538                     88.493695220620538                       90                             5.7068159335735207e-17 -1.027238690331419e-17  80.796039506896619   80                   8                    8                      12                           0                          4                    0.074824676919878458  1.6724154250796324e-05  1.6438415189870508e-05
                 2136106.5858065314                2.3682972918156706e-16            -2.187221803201972e-19              9                                    0                                       5                                      5                                   0                                      14                                1.9004595972242116e-16             88.445356654191173                     88.493695220620538                       90                             5.7063272911270414e-17 -1.0279503452124519e-17  80.796039506896619   80                   8                    8                      13                           1                          4                    0.074876237784933741  1.8130207527603962e-05  1.7820332160847091e-05
                 2124378.9705845006                2.353031065910388e-16            -1.5266225905282614e-18              10                                   0                                       5                                      5                                   0                                      15                                1.8860317558274089e-16             88.106987803508858                     88.493695220620538                       90                             5.7029163679959273e-17 -1.0329232671661369e-17  80.796039506896619   80                   8                    8                      14                           2                          4                    0.075236532865931627  2.7972053691212845e-05  2.749413411932839e-05
                 2125931.3716288153                2.3272079842312342e-16            -2.5823081679153774e-18              10                                   0                                       6                                      6                                   1                                      16                                1.8860317558274089e-16             88.106987803508858                     88.106987803508858                       90                             5.7029163679959273e-17 -1.291154083957671e-17  100.99504938362078   100                  10                   10                     15                           0                          5                    0.075236532865931627  2.7972053691212845e-05  2.749413411932839e-05
                 2124231.3532021395                2.324996117427204e-16            -2.2118668040301775e-19              11                                   0                                       6                                      6                                   0                                      17                                1.8839673722386581e-16             88.058151896319757                     88.106987803508858                       90                             5.7024379345287074e-17 -1.2921504826432442e-17  100.99504938362078   100                  10                   10                     16                           1                          5                    0.075294247725966532  2.9738876562762922e-05  2.923062557367471e-05
                 2112199.4850262329                2.3095580901970555e-16            -1.5438027230148503e-18              12                                   0                                       6                                      6                                   0                                      18                                1.8695596638166303e-16             87.716301736786178                     88.106987803508858                       90                             5.699098671853486e-17 -1.2991144080492343e-17  100.99504938362078   100                  10                   10                     17                           2                          5                    0.075697618585450877  4.2105958696907143e-05  4.1386537163629847e-05
                 2113639.4707502984                2.2835758020360709e-16            -2.5982288160984642e-18              12                                   0                                       7                                      7                                   1                                      19                                1.8695596638166303e-16             87.716301736786178                     87.716301736786178                       90                             5.699098671853486e-17 -1.5589372896590819e-17  121.19405926034497   120.00000000000003   12.000000000000002   12.000000000000002     18                           0                          6                    0.075697618585450877  4.2105958696907143e-05  4.1386537163629847e-05
                 2111895.7671913784                2.2813346974482952e-16            -2.241104587775716e-19              13                                   0                                       7                                      7                                   0                                      20                                1.8674979264982206e-16             87.666957553361129                     87.716301736786178                       90                             5.6986305525075521e-17 -1.5602628430068044e-17  121.19405926034497   120.00000000000003   12.000000000000002   12.000000000000002     19                           1                          6                    0.075761568124530845  4.4237808217997306e-05  4.3481785054544727e-05
                 2099557.438542245                 2.2656927484048343e-16            -1.564194904346083e-18              14                                   0                                       7                                      7                                   0                                      21                                1.8531092401739693e-16             87.321549539134139                     87.716301736786178                       90                             5.6953637115016703e-17 -1.5695286291930157e-17  121.19405926034497   120.00000000000003   12.000000000000002   12.000000000000002     20                           2                          6                    0.07620857937588707  5.9159918434464935e-05  5.8149077648554336e-05
# Table End
