# ODT 1.0
# Table Start
# Title: mmArchive Data Table, Wed Jun 11 15:37:42 EDT 2014
# Columns: {Oxs_RungeKuttaEvolve:evolver:Total energy} {Oxs_RungeKuttaEvolve:evolver:Energy calc count} {Oxs_RungeKuttaEvolve:evolver:Max dm/dt} Oxs_RungeKuttaEvolve:evolver:dE/dt {Oxs_RungeKuttaEvolve:evolver:Delta E} Oxs_Exchange6Ngbr:NiFe:Energy {Oxs_Exchange6Ngbr:NiFe:Max Spin Ang} {Oxs_Exchange6Ngbr:NiFe:Stage Max Spin Ang} {Oxs_Exchange6Ngbr:NiFe:Run Max Spin Ang} Oxs_UniaxialAnisotropy::Energy Oxs_UZeeman::Energy  Oxs_UZeeman::B       Oxs_UZeeman::Bx      Oxs_UZeeman::By      Oxs_UZeeman::Bz      Oxs_Demag::Energy    Oxs_TimeDriver::Iteration {Oxs_TimeDriver::Stage iteration} Oxs_TimeDriver::Stage Oxs_TimeDriver::mx   Oxs_TimeDriver::my   Oxs_TimeDriver::mz   {Oxs_TimeDriver::Last time step} {Oxs_TimeDriver::Simulation time}
# Units:                        J                                             {}                                         deg/ns                                 J/s                                   J                                  J                                deg                                      deg                                        deg                                  J                         J                 mT                   mT                   mT                   mT                     J                       {}                            {}                          {}                   {}                   {}                   {}                          s                                 s                
                       1.5451077940222231e-15                            1                                            9882.5267374184605                   -6.0631714867121705e-05                  0                                 5.1428571428571426e-16               90                                       90                                         90                                   2.2704950495049504e-17       0                    0                    0                    0                    0                    1.0081171292414592e-15    0                             0                           0                     0.57853047253802026  0.44028194257079167  0                          0                                0                         
                       1.5450495129099219e-15                            7                                            9882.4616303538951                   -6.0624002710047045e-05                 -5.8281112301089919e-20               5.1424461831970557e-16               89.998032461955148                       90                                         90                                   2.2702985861927242e-17       0                    0                    0                    0                    0                    1.0081019087282892e-15    1                             1                           0                     0.5785311354889271   0.44027931028623968  6.1645448748733697e-06        9.6129261801335795e-16              9.6129261801335795e-16       
                       1.5448164624535852e-15                            13                                           9882.2018773651198                   -6.0593253579313242e-05                 -2.3305045633685187e-19               5.1408011622675842e-16               89.990147862017039                       90                                         90                                   2.2695190849924478e-17       0                    0                    0                    0                    0                    1.0080411553769023e-15    2                             2                           0                     0.57853378295804125  0.44026876553548538  3.0815064170092202e-05        3.8451704720534318e-15              4.8064630900667895e-15       
                       1.5438854338561317e-15                            19                                           9881.1733676241965                   -6.0471837109127023e-05                 -9.3102859745340223e-19               5.134202214953266e-16               89.958378745509492                       90                                         90                                   2.2665024937253285e-17       0                    0                    0                    0                    0                    1.0078001874235518e-15    3                             3                           0                     0.57854430357573883  0.44022633687089097  0.00012929454823364629        1.5380681888213727e-14              2.0187144978280517e-14       
                       1.540179424471546e-15                            25                                           9877.2080219498184                   -6.0010696491438989e-05                 -3.7060093845856792e-18               5.1075080985454156e-16               89.82763947766405                        90                                         90                                   2.2560449693094471e-17       0                    0                    0                    0                    0                    1.0068681649239099e-15    4                             4                           0                     0.57858528344877402  0.44005263621424062  0.0005212490587978249        6.1522727552854909e-14              8.1709872531135425e-14       
                       1.2299238771500542e-15                            26                                           10318.630941435022                   -6.1082822540868448e-05                 -3.1025554732149182e-16               5.1075080985454156e-16               89.82763947766405                        89.82763947766405                          90                                   2.2560449693094471e-17      -3.1025554732149182e-16  50.249378105604457   50.000000000000007   5                    0                    1.0068681649239099e-15    5                             0                           1                     0.57858528344877402  0.44005263621424062  0.0005212490587978249        0                                8.1709872531135425e-14       
                       1.229867643477933e-15                            32                                           10318.560158533342                   -6.1076022904028293e-05                 -5.623367212134911e-20               5.1070883407947928e-16               89.825453632213097                       89.82763947766405                          90                                   2.2559076923474458e-17      -3.1025633488660036e-16  50.249378105604457   50.000000000000007   5                    0                    1.0068560673615794e-15    6                             1                           1                     0.57858711656983042  0.44005010909150094  0.00052956552827073506        9.2066477170457142e-16              8.2630537302839999e-14       
                       1.2296427712735064e-15                            38                                           10318.277129456495                   -6.1048909622140091e-05                 -2.2487220442647149e-19               5.1054082221321125e-16               89.816696961700288                       89.82763947766405                          90                                   2.2553643288336863e-17      -3.1025948352233043e-16  50.249378105604457   50.000000000000007   5                    0                    1.0068077892942887e-15    7                             2                           1                     0.578594447132321    0.44003998721491561  0.00056282358444594157        3.6826590868182857e-15              8.6313196389658279e-14       
                       1.2287442734548037e-15                            44                                           10317.146397131382                   -6.0941810190588451e-05                 -8.9849781870282262e-19               5.098670397910115e-16               89.781458062897357                       89.82763947766405                          90                                   2.2532825972595996e-17      -3.10272052099722e-16  50.249378105604457   50.000000000000007   5                    0                    1.0066164597909182e-15    8                             3                           1                     0.57862373868536188  0.43999928562690649  0.0006957306287391265        1.4730636347273143e-14              1.0104383273693142e-13       
                       1.2251655915482627e-15                            50                                           10312.629204914438                   -6.0534402366950129e-05                 -3.5786819065408294e-18               5.0714449764028567e-16               89.637132802939362                       89.82763947766405                          90                                   2.2464114664576501e-17      -3.1032191267431901e-16  50.249378105604457   50.000000000000007   5                    0                    1.0058788919177196e-15    9                             4                           1                     0.57874041664572662  0.43983305936335487  0.0012253537850569723        5.8922545389092571e-14              1.5996637812602398e-13       
                       9.1484367887394368e-16                            51                                           10752.912326601216                   -6.2939609364135704e-05                 -3.1032191267431901e-16               5.0714449764028567e-16               89.637132802939362                       89.637132802939362                         90                                   2.2464114664576501e-17      -6.2064382534863803e-16  100.49875621120891   100.00000000000001   10                   0                    1.0058788919177196e-15    10                            0                           2                     0.57874041664572662  0.43983305936335487  0.0012253537850569723        0                                1.5996637812602398e-13       
                       9.1478807555173718e-16                            57                                           10752.831372074512                   -6.2933581069113333e-05                 -5.5603322206590286e-20               5.0710174690542417e-16               89.634751616760568                       89.637132802939362                         90                                   2.2463256734673451e-17      -6.2064650153916236e-16  100.49875621120891   100.00000000000001   10                   0                    1.0058695734508018e-15    11                            1                           2                     0.57874334404434047  0.43983063696676838  0.0012356426059411082        8.8348158261258359e-16              1.6084985970863658e-13       
                       9.1456571542477534e-16                            63                                           10752.507196861992                   -6.2909541060376654e-05                 -2.223601269616931e-19               5.069306438363937e-16               89.625214600542137                       89.637132802939362                         90                                   2.2459877210137001e-17      -6.206572052574789e-16  100.49875621120891   100.00000000000001   10                   0                    1.0058323996357237e-15    12                            2                           2                     0.57875505377657854  0.43982093552981127  0.0012767899421878878        3.5339263304503343e-15              1.643837860390869e-13       
                       9.1367711830587961e-16                            69                                           10751.204563393509                   -6.2814542378391682e-05                 -8.8859711889574144e-19               5.0624463471413364e-16               89.586870556856027                       89.637132802939362                         90                                   2.2447192618521214e-17      -6.2070000345293412e-16  100.49875621120891   100.00000000000001   10                   0                    1.0056852944261589e-15    13                            3                           2                     0.57880189492801981  0.43978194022007328  0.0014412520951079619        1.4135705321801337e-14              1.7851949136088824e-13       
                       9.1013577440038249e-16                            75                                           10745.885115249452                   -6.2452534026761876e-05                 -3.5413439054972722e-18               5.0347538943455859e-16               89.430382136692401                       89.637132802939362                         90                                   2.2409688504285218e-17      -6.2087093053200346e-16  100.49875621120891   100.00000000000001   10                   0                    1.005121626993542e-15    14                            4                           2                     0.57898929595458826  0.43962292884136478  0.0020970633395182548        5.654282128720535e-14              2.3506231264809358e-13       
                       5.9970030913438067e-16                            76                                           11185.139047341589                   -6.6192308259102847e-05                 -3.1043546526600173e-16               5.0347538943455859e-16               89.430382136692401                       89.430382136692401                         90                                   2.2409688504285218e-17      -9.3130639579800518e-16  150.74813431681338   150                  15.000000000000002   0                    1.005121626993542e-15    15                            0                           3                     0.57898929595458826  0.43962292884136478  0.0020970633395182548        0                                2.3506231264809358e-13       
                       5.9964409155960825e-16                            82                                           11185.044544416487                   -6.6186932944750689e-05                 -5.6217574772483444e-20               5.0343195455017309e-16               89.427825362365681                       89.430382136692401                         90                                   2.2409280008481475e-17      -9.3131195980478176e-16  150.74813431681338   150                  15.000000000000002   0                    1.0051148168057355e-15    16                            1                           3                     0.57899325007419522  0.43962060533087643  0.0021091673200959618        8.4934125179766075e-16              2.3591165389989127e-13       
                       5.9941926683518424e-16                            88                                           11184.665803514712                   -6.6165494527447774e-05                 -2.248247244239426e-19               5.0325812276997735e-16               89.417586891856033                       89.430382136692401                         90                                   2.2407693652087918e-17      -9.3133421705713124e-16  150.74813431681338   150                  15.000000000000002   0                    1.0050876674702502e-15    17                            2                           3                     0.57900906845892985  0.4396113004215122   0.002157575197217603        3.397365007190643e-15              2.3930901890708188e-13       
                       5.9852069118825249e-16                            94                                           11183.138984865771                   -6.6080737913339784e-05                 -8.9857564693180085e-19               5.0256132487994413e-16               89.376451372478513                       89.430382136692401                         90                                   2.2402108841816177e-17      -9.3142326566130097e-16  150.74813431681338   150                  15.000000000000002   0                    1.0049805231277932e-15    18                            3                           3                     0.57907237249114552  0.43957390692087017  0.002351077944240834        1.3589460028762572e-14              2.5289847893584444e-13       
                       5.9493758982233748e-16                            100                                          11176.83003384047                    -6.5757132770809308e-05                 -3.5831013659149552e-18               4.9975093329770218e-16               89.209024509837818                       89.430382136692401                         90                                   2.2391850086947936e-17      -9.3177977263024307e-16  150.74813431681338   150                  15.000000000000002   0                    1.0045745790679305e-15    19                            4                           3                     0.57932607578668793  0.4394215519160824   0.0031230262616166959        5.4357840115050288e-14              3.0725631905089476e-13       
                       2.8434433227892312e-16                            101                                          11615.152425292104                   -7.0832751597628768e-05                 -3.1059325754341436e-16               4.9975093329770218e-16               89.209024509837818                       89.209024509837818                         90                                   2.2391850086947936e-17      -1.2423730301736574e-15  200.99751242241783   200.00000000000003   20                   0                    1.0045745790679305e-15    20                            0                           4                     0.57932607578668793  0.4394215519160824   0.0031230262616166959        0                                3.0725631905089476e-13       
                       2.8428640034608939e-16                            107                                          11615.041807786958                   -7.0827929336322393e-05                 -5.793193283374617e-20               4.9970689333906515e-16               89.206309238057315                       89.209024509837818                         90                                   2.2391835106112329e-17      -1.242382392912823e-15  200.99751242241783   200.00000000000003   20                   0                    1.0045700648137348e-15    21                            1                           4                     0.57933099629160512  0.43941931744446688  0.0031368071090043912        8.1789714436408597e-16              3.0807421619525882e-13       
                       2.840547119896484e-16                            113                                          11614.598304721634                   -7.0808694259918303e-05                 -2.316883564409769e-19               4.9953064847520773e-16               89.195437575773326                       89.209024509837818                         90                                   2.2391818803865097e-17      -1.2424198486547553e-15  200.99751242241783   200.00000000000003   20                   0                    1.0045520933653311e-15    22                            2                           4                     0.57935068174455218  0.43941036923175619  0.0031919223754138448        3.2715885774563439e-15              3.1134580477271519e-13       
                       2.8312858364762472e-16                            119                                          11612.807601851355                   -7.0732609937230727e-05                 -9.2612834202370464e-19               4.9882431352552115e-16               89.151782031514216                       89.209024509837818                         90                                   2.2392450278608867e-17      -1.2425697481292188e-15  200.99751242241783   200.00000000000003   20                   0                    1.0044815679727133e-15    23                            3                           4                     0.57942947846098247  0.43937441115010645  0.0034122534281798675        1.3086354309825376e-14              3.2443215908254056e-13       
                       2.7943376538898667e-16                            125                                          11605.367407525287                   -7.0441491984809987e-05                 -3.6948182586380459e-18               4.9597760832425617e-16               88.974477254155062                       89.209024509837818                         90                                   2.2406043721823153e-17      -1.243170566027825e-15  200.99751242241783   200.00000000000003   20                   0                    1.0042206793707322e-15    24                            4                           4                     0.57974554182454574  0.43922793429113871  0.004291494678281116        5.2345417239301502e-14              3.7677757632184204e-13       
                      -3.1358876117969563e-17                            126                                          12042.84220243398                    -7.6854045530695499e-05                 -3.1079264150695624e-16               4.9597760832425617e-16               88.974477254155062                       88.974477254155062                         90                                   2.2406043721823153e-17      -1.5539632075347812e-15  251.24689052802228   250.00000000000003   25.000000000000004   0                    1.0042206793707322e-15    25                            0                           5                     0.57974554182454574  0.43922793429113871  0.004291494678281116        0                                3.7677757632184204e-13       
                      -3.1419500739137485e-17                            132                                          12042.713493185222                   -7.684969130745053e-05                 -6.0624621167924653e-20               4.9593303250844663e-16               88.971618357123532                       88.974477254155062                         90                                   2.240637413576423e-17      -1.5539772031224741e-15  251.24689052802228   250.00000000000003   25.000000000000004   0                    1.0042182957391257e-15    26                            1                           5                     0.57975137464436022  0.43922577605142649  0.0043068301230501224        7.8885032621949941e-16              3.7756642664806158e-13       
                      -3.1661964930332387e-17                            138                                          12042.197372911773                   -7.6832320726284709e-05                 -2.4246419119490047e-19               4.9575465082710337e-16               88.960172906838267                       88.974477254155062                         90                                   2.2407735876006103e-17      -1.5540331948023631e-15  251.24689052802228   250.00000000000003   25.000000000000004   0                    1.0042088431689213e-15    27                            2                           5                     0.57977471068182562  0.43921713295202813  0.0043681637139674186        3.1554013048779977e-15              3.8072182795293958e-13       
                      -3.2631277065841684e-17                            144                                          12040.112219241602                   -7.6763572629180181e-05                 -9.6931213550929354e-19               4.950398742354211e-16               88.914233596187401                       88.974477254155062                         90                                   2.2413823063328431e-17      -1.554257310670277e-15  251.24689052802228   250.00000000000003   25.000000000000004   0                    1.0041723363056856e-15    28                            3                           5                     0.57986813091904721  0.43918239827356459  0.0046133670188008222        1.2621605219511991e-14              3.9334343317245153e-13       
                      -3.6500064587019652e-17                            150                                          12031.431905546706                   -7.6499899562449582e-05                 -3.8687875211779737e-18               4.9216108210323136e-16               88.727974488134308                       88.974477254155062                         90                                   2.2448344044711626e-17      -1.5551561525548883e-15  251.24689052802228   250.00000000000003   25.000000000000004   0                    1.0040466618199256e-15    29                            4                           5                     0.5802430262882502   0.43904086089045197  0.0055920801775917123        5.0486420878047962e-14              4.4382985405049949e-13       
                      -3.4753129509799729e-16                            151                                          12468.129577268532                   -8.4250306483808033e-05                 -3.1103123051097762e-16               4.9216108210323136e-16               88.727974488134308                       88.727974488134308                         90                                   2.2448344044711626e-17      -1.8661873830658658e-15  301.49626863362676   300                  30.000000000000004   0                    1.0040466618199256e-15    30                            0                           6                     0.5802430262882502   0.43904086089045197  0.0055920801775917123        0                                4.4382985405049949e-13       
                      -3.475954874933072e-16                            157                                          12467.98122805045                    -8.4246347357427834e-05                 -6.4192395309889117e-20               4.9211603132286089e-16               88.724984977172923                       88.727974488134308                         90                                   2.2448978189278811e-17      -1.8662067785179948e-15  301.49626863362676   300                  30.000000000000004   0                    1.0040462815125478e-15    31                            1                           6                     0.58024972280342013  0.43903876390552576  0.005608861597332271        7.6194267481147094e-16              4.4459179672531096e-13       
                      -3.4785222695363559e-16                            163                                          12467.386340085006                   -8.4230550520701506e-05                 -2.5673946032839108e-19               4.9193575585777909e-16               88.713017711622228                       88.727974488134308                         90                                   2.2451551709657975e-17      -1.8662843749436844e-15  301.49626863362676   300                  30.000000000000004   0                    1.0040448404226117e-15    32                            2                           6                     0.58027651477697961  0.43903036572422133  0.0056759790298060173        3.0477706992458838e-15              4.4763956742455687e-13       
                      -3.4887870622352745e-16                            169                                          12464.982809041805                   -8.4167991776215958e-05                 -1.0264792698918969e-18               4.9121350116686482e-16               88.665001368035959                       88.727974488134308                         90                                   2.2462435843594868e-17      -1.8665949943357153e-15  301.49626863362676   300                  30.000000000000004   0                    1.004040351101728e-15    33                            3                           6                     0.58038377722018142  0.43899660908406363  0.0059443167602439614        1.2191082796983535e-14              4.5983065022154036e-13       
                      -3.5297717513177476e-16                            175                                          12454.977260803023                   -8.3927428230839906e-05                 -4.0984689082472706e-18               4.8830633862192282e-16               88.470596553622727                       88.727974488134308                         90                                   2.2515348309887139e-17      -1.8678411986135278e-15  301.49626863362676   300                  30.000000000000004   0                    1.0040423365499433e-15    34                            4                           6                     0.580814335982484    0.43885895662385782  0.0070155521014526358        4.876433118793414e-14              5.0859498140947451e-13       
# Table End
