# ODT 1.0
# Table Start
# Title: mmArchive Data Table, Wed Jun 16 18:43:32 EDT 2010
# Columns: {Oxs_RungeKuttaEvolve:evolver:Total energy} {Oxs_RungeKuttaEvolve:evolver:Energy calc count} {Oxs_RungeKuttaEvolve:evolver:Max dm/dt} Oxs_RungeKuttaEvolve:evolver:dE/dt {Oxs_RungeKuttaEvolve:evolver:Delta E} Oxs_Exchange6Ngbr:NiFe:Energy {Oxs_Exchange6Ngbr:NiFe:Max Spin Ang} {Oxs_Exchange6Ngbr:NiFe:Stage Max Spin Ang} {Oxs_Exchange6Ngbr:NiFe:Run Max Spin Ang} Oxs_UniaxialAnisotropy::Energy Oxs_UZeeman::Energy  Oxs_UZeeman::B       Oxs_UZeeman::Bx      Oxs_UZeeman::By      Oxs_UZeeman::Bz      Oxs_Demag::Energy    Oxs_TimeDriver::Iteration {Oxs_TimeDriver::Stage iteration} Oxs_TimeDriver::Stage Oxs_TimeDriver::mx   Oxs_TimeDriver::my   Oxs_TimeDriver::mz   {Oxs_TimeDriver::Last time step} {Oxs_TimeDriver::Simulation time}
# Units:                        J                                             {}                                         deg/ns                                 J/s                                   J                                  J                                deg                                      deg                                        deg                                  J                         J                 mT                   mT                   mT                   mT                     J                       {}                            {}                          {}                   {}                   {}                   {}                          s                                 s                
                       1.5451077940222065e-15                            1                                            9882.5267374169198                   -6.0631714867124456e-05                  0                                 5.1428571428571426e-16               90                                       90                                         90                                   2.2704950495049504e-17       0                    0                    0                    0                    0                    1.0081171292414426e-15    0                             0                           0                     0.57853047253802026  0.44028194257079167  0                          0                                0                         
                       1.5450495129099054e-15                            7                                            9882.4616303523544                   -6.0624002710049796e-05                 -5.8281112301101643e-20               5.1424461831970557e-16               89.998032461955148                       90                                         90                                   2.2702985861927242e-17       0                    0                    0                    0                    0                    1.0081019087282726e-15    1                             1                           0                     0.5785311354889271   0.44027931028623968  6.1645448748743302e-06        9.6129261801350783e-16              9.6129261801350783e-16       
                       1.5448164624535684e-15                            13                                           9882.2018773635791                   -6.0593253579315986e-05                 -2.3305045633689882e-19               5.1408011622675842e-16               89.990147862017039                       90                                         90                                   2.2695190849924475e-17       0                    0                    0                    0                    0                    1.0080411553768857e-15    2                             2                           0                     0.57853378295804125  0.44026876553548538  3.0815064170097007e-05        3.8451704720540313e-15              4.806463090067539e-15       
                       1.234575808999158e-15                            14                                           10325.666726615318                   -6.168094681855755e-05                 -3.1024065345441058e-16               5.1408011622675842e-16               89.990147862017039                       89.990147862017039                         90                                   2.2695190849924475e-17      -3.1024065345441058e-16  50.249378105604457   50.000000000000007   5                    0                    1.0080411553768857e-15    3                             0                           1                     0.57853378295804125  0.44026876553548538  3.0815064170097007e-05        0                                4.806463090067539e-15       
                       1.2345190636861407e-15                            20                                           10325.594233552518                   -6.1673410632795566e-05                 -5.6745313017171745e-20               5.1403905433316675e-16               89.988071520295293                       89.990147862017039                         90                                   2.2693340727506969e-17      -3.1024146282440783e-16  50.249378105604457   50.000000000000007   5                    0                    1.0080281314498747e-15    4                             1                           1                     0.57853564749052444  0.44026636185769891  3.9187439409947674e-05        9.2003744179665509e-16              5.7265005318641937e-15       
                       1.2342921516412819e-15                            26                                           10325.304553620845                   -6.1643358979171251e-05                 -2.2691204485888732e-19               5.138746944546257e-16               89.979752584904972                       89.990147862017039                         90                                   2.2685999030551936e-17      -3.1024469864925234e-16  50.249378105604457   50.000000000000007   5                    0                    1.0079761568053565e-15    5                             2                           1                     0.57854310364544292  0.44025673368287527  7.2669157828675142e-05        3.6801497671866204e-15              9.406650299050814e-15       
                       9.2404745299202947e-16                            27                                           10769.462467998592                   -6.4078022881763669e-05                 -3.1024469864925234e-16               5.138746944546257e-16               89.979752584904972                       89.979752584904972                         90                                   2.2685999030551936e-17      -6.2048939729850467e-16  100.49875621120891   100.00000000000001   10                   0                    1.0079761568053565e-15    6                             0                           2                     0.57854310364544292  0.44025673368287527  7.2669157828675142e-05        0                                9.406650299050814e-15       
                       9.239909314911517e-16                            33                                           10769.384500407683                   -6.4070648545232913e-05                 -5.6521500877747253e-20               5.1383366694210449e-16               89.977576722337574                       89.979752584904972                         90                                   2.2684253059575961e-17      -6.2049213688860308e-16  100.49875621120891   100.00000000000001   10                   0                    1.0079651483780743e-15    7                             1                           2                     0.57854607174767203  0.44025454037051925  8.3066649242409651e-05        8.8212387834854397e-16              1.0288774177399358e-14       
                       9.2376491042255468e-16                            39                                           10769.072604101691                   -6.4041238732896779e-05                 -2.2602106859708496e-19               5.1366944997007222e-16               89.968860491397706                       89.979752584904972                         90                                   2.2677323779267948e-17      -6.205030941105587e-16  100.49875621120891   100.00000000000001   10                   0                    1.0079212307837733e-15    8                             2                           2                     0.57855794421190776  0.4402457551453729   0.00012464875597516421        3.5284955133941759e-15              1.3817269690793535e-14       
                       6.1351336336727533e-16                            40                                           11213.848453493121                   -6.7822916507093229e-05                 -3.1025154705527935e-16               5.1366944997007222e-16               89.968860491397706                       89.968860491397706                         90                                   2.2677323779267948e-17      -9.3075464116583815e-16  150.74813431681338   150                  15.000000000000002   0                    1.0079212307837733e-15    9                             0                           3                     0.57855794421190776  0.4402457551453729   0.00012464875597516421        0                                1.3817269690793535e-14       
                       6.1345590910570888e-16                            46                                           11213.766543916528                   -6.7815691654940055e-05                 -5.7454261566466396e-20               5.1362845682812155e-16               89.966593280713866                       89.968860491397706                         90                                   2.2675672877769527e-17      -9.3076029990080262e-16  150.74813431681338   150                  15.000000000000002   0                    1.0079120793006204e-15    10                            1                           3                     0.57856192928220518  0.44024375576558095  0.000136910081680924        8.471667901879611e-16              1.4664436480981495e-14       
                       6.1322615316087435e-16                            52                                           11213.438612807076                   -6.7786874934427295e-05                 -2.2975594483451045e-19               5.1346438224771998e-16               89.957512366540129                       89.968860491397706                         90                                   2.2669120145190486e-17      -9.3078293590023719e-16  150.74813431681338   150                  15.000000000000002   0                    1.0078755866682011e-15    11                            2                           3                     0.57857787137369354  0.44023574723094516  0.00018594748558772243        3.3886671607518444e-15              1.8053103641733341e-14       
                       3.0296517452746192e-16                            53                                           11658.767839412842                   -7.2915606377982605e-05                 -3.1026097863341243e-16               5.1346438224771998e-16               89.957512366540129                       89.957512366540129                         90                                   2.2669120145190486e-17      -1.2410439145336497e-15  200.99751242241783   200.00000000000003   20                   0                    1.0078755866682011e-15    12                            0                           4                     0.57857787137369354  0.44023574723094516  0.00018594748558772243        0                                1.8053103641733341e-14       
                       3.0290576305240749e-16                            59                                           11658.683219095152                   -7.2908520122056211e-05                 -5.9411475054431749e-20               5.134234232303539e-16               89.955161037848995                       89.957512366540129                         90                                   2.2667556311932486e-17      -1.2410533691116788e-15  200.99751242241783   200.00000000000003   20                   0                    1.0078681526218e-15    13                            1                           4                     0.57858279653518319  0.44023392692677188  0.00019992961065703037        8.1483739369823822e-16              1.8867941035431578e-14       
                       3.0266817479774931e-16                            65                                           11658.344219314517                   -7.2880253532963605e-05                 -2.3758825465818777e-19               5.1325948964320036e-16               89.945744292891078                       89.957512366540129                         90                                   2.2661348515590585e-17      -1.2410911919799963e-15  200.99751242241783   200.00000000000003   20                   0                    1.0078385286189547e-15    14                            2                           4                     0.57860250051464979  0.44022663523234806  0.00025585020080672911        3.2593495747929529e-15              2.2127290610224532e-14       
                      -7.6046231972497373e-18                            66                                           12104.171031231272                   -7.9356075396493902e-05                 -3.1027279799499908e-16               5.1325948964320036e-16               89.945744292891078                       89.945744292891078                         90                                   2.2661348515590585e-17      -1.5513639899749954e-15  251.24689052802228   250.00000000000003   25.000000000000004   0                    1.0078385286189547e-15    15                            0                           5                     0.57860250051464979  0.44022663523234806  0.00025585020080672911        0                                2.2127290610224532e-14       
                      -7.6669033535044448e-18                            72                                           12104.084690349395                   -7.9349118093829368e-05                 -6.2280156254706716e-20               5.1321856433195348e-16               89.943315271104055                       89.945744292891078                         90                                   2.2659864669279203e-17      -1.5513780210583006e-15  251.24689052802228   250.00000000000003   25.000000000000004   0                    1.0078326887035635e-15    16                            1                           5                     0.57860829722693963  0.44022498052614234  0.00027142571631506482        7.848534175110406e-16              2.2912144027735572e-14       
                      -7.9159694618419741e-18                            78                                           12103.73861578813                    -7.9321363558543833e-05                 -2.4906610833752888e-19               5.1305476969912338e-16               89.933588335871093                       89.945744292891078                         90                                   2.2653973823270616e-17      -1.5514341544427353e-15  251.24689052802228   250.00000000000003   25.000000000000004   0                    1.0078094414584995e-15    17                            2                           5                     0.57863148873661008  0.44021835142239352  0.0003337198797159056        3.1394136700441624e-15              2.6051557697779733e-14       
                      -3.1820280035038905e-16                            79                                           12550.014539201207                   -8.714430985010085e-05                 -3.1028683088854708e-16               5.1305476969912338e-16               89.933588335871093                       89.933588335871093                         90                                   2.2653973823270616e-17      -1.8617209853312826e-15  301.49626863362676   300                  30.000000000000004   0                    1.0078094414584995e-15    18                            0                           6                     0.57863148873661008  0.44021835142239352  0.0003337198797159056        0                                2.6051557697779733e-14       
                      -3.1826876349807088e-16                            85                                           12549.927273958991                   -8.7137472910513622e-05                 -6.5963147681810309e-20               5.1301387755071806e-16               89.931087354248589                       89.933588335871093                         90                                   2.2652563670116647e-17      -1.8617402909457019e-15  301.49626863362676   300                  30.000000000000004   0                    1.0078050862267966e-15    19                            1                           6                     0.57863809564439606  0.44021685004873151  0.00035077483142311263        7.5697123460102879e-16              2.6808528932380763e-14       
                      -3.1853256441615172e-16                            91                                           12549.577336365128                   -8.7110196480517482e-05                 -2.6380091808085715e-19               5.1285021937601102e-16               89.921073110075085                       89.933588335871093                         90                                   2.2646964893410187e-17      -1.8618175277113366e-15  301.49626863362676   300                  30.000000000000004   0                    1.0077877790257636e-15    20                            2                           6                     0.57866452909606592  0.44021083420183799  0.00041898676894277874        3.0278849384041152e-15              2.9836413870784878e-14       
# Table End
