# ODT 1.0
# Table Start
# Title: mmArchive Data Table, Wed Aug 17 23:55:31 EDT 2011
# Columns: {Oxs_CGEvolve::Max mxHxm} {Oxs_CGEvolve::Total energy} {Oxs_CGEvolve::Delta E} {Oxs_CGEvolve::Bracket count} {Oxs_CGEvolve::Line min count} {Oxs_CGEvolve::Conjugate cycle count} {Oxs_CGEvolve::Cycle count} {Oxs_CGEvolve::Cycle sub count} {Oxs_CGEvolve::Energy calc count} Oxs_Exchange6Ngbr::Energy {Oxs_Exchange6Ngbr::Max Spin Ang} {Oxs_Exchange6Ngbr::Stage Max Spin Ang} {Oxs_Exchange6Ngbr::Run Max Spin Ang} Oxs_UniaxialAnisotropy:CoAnis:Energy Oxs_CubicAnisotropy:FeAnis:Energy Oxs_UZeeman::Energy  Oxs_UZeeman::B       Oxs_UZeeman::Bx      Oxs_UZeeman::By      Oxs_UZeeman::Bz      Oxs_Demag::Energy    Oxs_MinDriver::Iteration {Oxs_MinDriver::Stage iteration} Oxs_MinDriver::Stage Oxs_MinDriver::mx    Oxs_MinDriver::my    Oxs_MinDriver::mz   
# Units:              A/m                         J                          J                         {}                             {}                                {}                               {}                            {}                               {}                             J                            deg                                  deg                                    deg                                   J                                   J                          J                 mT                   mT                   mT                   mT                     J                       {}                           {}                         {}                 {}                   {}                   {}           
              7241523.0580224954          1.0388220507262951e-14       1.0388220507262951e-14        0                              0                                 1                                1                             1                                1                             9.2540932170452172e-15           179.30430080589255                   179.30430080589255                     179.30430080589255                    3.5112213698105543e-16                5.5038326056624712e-18         0                    0                    0                    0                    0                    7.7750132063101701e-16    0                            0                          0                   -0.0011671709365174789  0.0019174838402105504 -0.0037216378551770974
              7241308.0787052484          1.0386339848099134e-14      -1.8806591638175206e-18        1                              0                                 1                                1                             1                                2                             9.2522666217336076e-15           179.30378778422633                   179.30430080589255                     179.30430080589255                    3.5111419574064408e-16                5.5038119648926978e-18         0                    0                    0                    0                    0                    7.7745521865998741e-16    1                            1                          0                   -0.0011689160251126839  0.0019194724579463963 -0.0037238391442050733
              7240599.1332326327          1.0380697803251686e-14      -5.6420448474479636e-18        2                              0                                 1                                1                             1                                3                             9.246786836446462e-15           179.30219452427929                   179.30430080589255                     179.30430080589255                    3.5109036872898463e-16                5.5037500210686995e-18         0                    0                    0                    0                    0                    7.7731684805516989e-16    2                            2                          0                   -0.0011741513901945102  0.0019254382738191148 -0.003730438153313087
              7231290.7888096729          1.0380754515937984e-14       5.671268629783041e-20        2                              0                                 2                                2                             2                                4                             9.246786836446462e-15           179.30219452427929                   179.30219452427929                     179.30430080589255                    3.5109036872898463e-16                5.5037500210686995e-18         5.6712686297785295e-20  20                   20                   0                    0                    7.7731684805516989e-16    3                            0                          1                   -0.0011741513901945102  0.0019254382738191148 -0.003730438153313087
              7231022.3222275255          1.0378871197244774e-14      -1.8833186932094469e-18        3                              0                                 2                                2                             0                                5                             9.2449577177954815e-15           179.30157741183697                   179.30219452427929                     179.30430080589255                    3.5108241681420193e-16                5.5037291099912496e-18         5.6730173209299681e-20  20                   20                   0                    0                    7.7727060335189158e-16    4                            1                          1                   -0.0011745134305563172  0.001927427518852118 -0.0037326451397140183
              7230152.7845954243          1.0373221178500085e-14      -5.6500187446891909e-18        4                              0                                 2                                2                             0                                6                             9.239470367266915e-15           179.29966451720102                   179.30219452427929                     179.30430080589255                    3.5105855778484771e-16                5.5036663556115973e-18         5.6782637510211685e-20  20                   20                   0                    0                    7.7713180445519958e-16    5                            2                          1                   -0.0011755996254779746  0.0019333951466082916 -0.0037392612888577093
              7220800.359347987           1.0373277961137595e-14       5.6782637509926263e-20        4                              0                                 3                                3                             1                                7                             9.239470367266915e-15           179.29966451720102                   179.29966451720102                     179.30430080589255                    3.5105855778484771e-16                5.5036663556115973e-18         1.1356527502042337e-19  40                   40                   0                    0                    7.7713180445519958e-16    6                            0                          2                   -0.0011755996254779746  0.0019333951466082916 -0.0037392612888577093
              7220478.2867341749          1.0371391779941394e-14      -1.8861811962014754e-18        5                              0                                 3                                3                             0                                8                             9.2376386589205821e-15           179.29893545908376                   179.29966451720102                     179.30430080589255                    3.5105059492752557e-16                5.5036451720339004e-18         1.1346596374794852e-19  40                   40                   0                    0                    7.7708541495750407e-16    7                            1                          2                   -0.0011745715797597195  0.0019353850182417995 -0.0037414741111102211
              7219447.8003615048          1.0365733177967567e-14      -5.6586019738266528e-18        6                              0                                 3                                3                             0                                9                             9.2321435437084962e-15           179.29667906876904                   179.29966451720102                     179.30430080589255                    3.5102670307550959e-16                5.5035816005190874e-18         1.1316803480994819e-19  40                   40                   0                    0                    7.7694618154823314e-16    8                            2                          2                   -0.001171487493115537  0.0019413544554514066 -0.0037481078157895332
              7210051.4147281526          1.0365789761984971e-14       5.6584017404390345e-20        6                              0                                 4                                4                             1                                10                            9.2321435437084962e-15           179.29667906876904                   179.29667906876904                     179.30430080589255                    3.5102670307550959e-16                5.5035816005190874e-18         1.6975205221492248e-19  60.000000000000014   60.000000000000014   0                    0                    7.7694618154823314e-16    9                            0                          3                   -0.001171487493115537  0.0019413544554514066 -0.0037481078157895332
              7209675.6160034221          1.0363900513160182e-14      -1.8892488247888005e-18        7                              0                                 4                                4                             0                                11                            9.2303091782680843e-15           179.29582983226425                   179.29667906876904                     179.30430080589255                    3.5101872900451726e-16                5.5035601421966949e-18         1.6940061078133716e-19  60.000000000000014   60.000000000000014   0                    0                    7.7689964513460356e-16    10                           1                          3                   -0.0011690621366109385  0.0019433449530284808 -0.0037503266139992416
              7208483.8203464467          1.0358232712165944e-14      -5.6678009942380347e-18        8                              0                                 4                                4                             0                                12                            9.2248060957988645e-15           179.29320501142436                   179.29667906876904                     179.30430080589255                    3.5099480351598178e-16                5.5034957468115862e-18         1.683462907321644e-19  60.000000000000014   60.000000000000014   0                    0                    7.7675997081355297e-16    11                           2                          3                   -0.0011617860964380736  0.0019493161973618367 -0.0037569782946030874
              7199043.5954308137          1.0358288827596188e-14       5.6115430243312163e-20        8                              0                                 5                                5                             1                                13                            9.2248060957988645e-15           179.29320501142436                   179.29320501142436                     179.30430080589255                    3.5099480351598178e-16                5.5034957468115862e-18         2.2446172097621901e-19  80                   80                   0                    0                    7.7675997081355297e-16    12                           0                          4                   -0.0011617860964380736  0.0019493161973618367 -0.0037569782946030874
              7198613.9491536701          1.0356396303803057e-14      -1.8925237931304339e-18        9                              0                                 5                                5                             0                                14                            9.2229690047987066e-15           179.29222703176532                   179.29320501142436                     179.30430080589255                    3.5098681795714489e-16                5.5034740114470408e-18         2.2372173378847235e-19  80                   80                   0                    0                    7.7671328530197049e-16    13                           1                          4                   -0.001157956014308579  0.0019513073202583353 -0.0037592032105442123
              7197260.4795562522          1.0350718681351066e-14      -5.6776224519912661e-18        10                             0                                 5                                5                             0                                15                            9.2174577492944816e-15           179.28920791563104                   179.29320501142436                     179.30430080589255                    3.5096285800909816e-16                5.5034087852974767e-18         2.2150177422516676e-19  80                   80                   0                    0                    7.7657316348796312e-16    14                           2                          4                   -0.0011464657782715197  0.0019572803694641993 -0.0037658732924749504
              7187776.5371285975          1.0350774056794622e-14       5.537544355626203e-20        10                             0                                 6                                6                             1                                16                            9.2174577492944816e-15           179.28920791563104                   179.28920791563104                     179.30430080589255                    3.5096285800909816e-16                5.5034087852974767e-18         2.7687721778145844e-19  100                  100                  0                    0                    7.7657316348796312e-16    15                           0                          5                   -0.0011464657782715197  0.0019572803694641993 -0.0037658732924749504
              7187292.9204442641          1.0348878048415491e-14      -1.8960083791316591e-18        11                             0                                 6                                6                             0                                17                            9.2156178631770419e-15           179.28809234721854                   179.28920791563104                     179.30430080589255                    3.5095486068511601e-16                5.5033867705391502e-18         2.7561114808081637e-19  100                  100                  0                    0                    7.7652632663471306e-16    16                           1                          5                   -0.0011412233621697961  0.001959272117081553 -0.0037681044696328161
              7185777.4079841059          1.0343189975230877e-14      -5.6880731846139736e-18        12                             0                                 6                                6                             0                                18                            9.210098225580704e-15           179.28465230083836                   179.28920791563104                     179.30430080589255                    3.5093086544518365e-16                5.5033207065684718e-18         2.7181293742566942e-19  100                  100                  0                    0                    7.7638575056099445e-16    17                           2                          5                   -0.0011254961074332653  0.0019652469689651259 -0.0037747933834341211
# Table End
