# ODT 1.0
# Table Start
# Title: mmArchive Data Table, Wed Jun 11 15:37:51 EDT 2014
# Columns: {Oxs_CGEvolve::Max mxHxm} {Oxs_CGEvolve::Total energy} {Oxs_CGEvolve::Delta E} {Oxs_CGEvolve::Bracket count} {Oxs_CGEvolve::Line min count} {Oxs_CGEvolve::Conjugate cycle count} {Oxs_CGEvolve::Cycle count} {Oxs_CGEvolve::Cycle sub count} {Oxs_CGEvolve::Energy calc count} Oxs_Exchange6Ngbr::Energy {Oxs_Exchange6Ngbr::Max Spin Ang} {Oxs_Exchange6Ngbr::Stage Max Spin Ang} {Oxs_Exchange6Ngbr::Run Max Spin Ang} Oxs_UniaxialAnisotropy:CoAnis:Energy Oxs_CubicAnisotropy:FeAnis:Energy Oxs_UZeeman::Energy  Oxs_UZeeman::B       Oxs_UZeeman::Bx      Oxs_UZeeman::By      Oxs_UZeeman::Bz      Oxs_Demag::Energy    Oxs_MinDriver::Iteration {Oxs_MinDriver::Stage iteration} Oxs_MinDriver::Stage Oxs_MinDriver::mx    Oxs_MinDriver::my    Oxs_MinDriver::mz   
# Units:              A/m                         J                          J                         {}                             {}                                {}                               {}                            {}                               {}                             J                            deg                                  deg                                    deg                                   J                                   J                          J                 mT                   mT                   mT                   mT                     J                       {}                           {}                         {}                 {}                   {}                   {}           
              7241523.0580192544          1.0388220507262996e-14       1.0388220507262996e-14        0                              0                                 1                                1                             0                                1                             9.2540932170452172e-15           179.30430080589281                   179.30430080589281                     179.30430080589281                    3.5112213698105533e-16                5.5038326056624704e-18         0                    0                    0                    0                    0                    7.775013206310598e-16    0                            0                          0                   -0.0011671709365175171  0.0019174838402105604 -0.0037216378551771026
              7241308.078701986           1.0386339848099176e-14      -1.8806591638196191e-18        1                              0                                 1                                1                             0                                2                             9.2522666217336092e-15           179.30378778422684                   179.30430080589281                     179.30430080589281                    3.5111419574064399e-16                5.5038119648926978e-18         0                    0                    0                    0                    0                    7.774552186600303e-16    1                            1                          0                   -0.0011689160251127397  0.0019194724579463692 -0.0037238391442050802
              6987669.4645312903          1.0009887716971635e-14      -3.7645213112754142e-16        2                              0                                 1                                1                             0                                3                             8.88686230704462e-15           179.45012539152026                   179.45012539152026                     179.45012539152026                    3.4951831091737292e-16                5.4996434644720922e-18         0                    0                    0                    0                    0                    7.6800745554516993e-16    2                            2                          0                   -0.0015182137084331275  0.0023174708401240756 -0.0041485470823766539
              6617405.1628775531          9.6218697058406555e-15      -3.8801801113097889e-16        3                              0                                 2                                2                             0                                4                             8.511144476917121e-15           179.50785805434853                   179.50785805434853                     179.50785805434853                    3.4784677776345761e-16                5.4955961598472056e-18         0                    0                    0                    0                    0                    7.5738285500022983e-16    3                            3                          0                   -0.0019008751492994701  0.0027399849917668197 -0.0045906745062666053
              6898614.9848017199          9.2201791686017614e-15      -4.0169053723889476e-16        4                              0                                 3                                3                             0                                5                             8.1231839983857276e-15           179.01116431017132                   179.50785805434853                     179.50785805434853                    3.4608841081168138e-16                5.4923037623871251e-18         0                    0                    0                    0                    0                    7.4541445564196535e-16    4                            4                          0                   -0.0023211471826843437  0.0031867691643620221 -0.0050484937290082542
              6887852.4728580453          9.2202912823318322e-15       1.1211373007083612e-19        4                              0                                 4                                4                             0                                6                             8.1231839983857276e-15           179.01116431017132                   179.01116431017132                     179.50785805434853                    3.4608841081168138e-16                5.4923037623871251e-18         1.121137300708365e-19  20                   20                   0                    0                    7.4541445564196535e-16    5                            0                          1                   -0.0023211471826843437  0.0031867691643620221 -0.0050484937290082542
              7127317.8423499791          8.8451551729251322e-15      -3.7513610940669976e-16        5                              0                                 4                                4                             0                                7                             7.7618186384706265e-15           179.18208256539452                   179.18208256539452                     179.50785805434853                    3.4442576830421123e-16                5.4904877396929449e-18         1.1800704974874856e-19  20                   20                   0                    0                    7.3330227136085289e-16    6                            1                          1                   -0.0024431595567120461  0.0036067952561027539 -0.0054768093749844957
              6952979.8325001961          8.4946846091606261e-15      -3.5047056376450622e-16        6                              0                                 5                                5                             0                                8                             7.4250575480074222e-15           179.29908517720764                   179.29908517720764                     179.50785805434853                    3.4286185139664626e-16                5.4901755293178791e-18         1.2285919090237666e-19  20                   20                   0                    0                    7.2115217503633651e-16    7                            2                          1                   -0.0025436158858486704  0.0039976856093827872 -0.0058745223563454662
              6659991.215309605           8.1491078197303721e-15      -3.4557678943025406e-16        7                              0                                 6                                6                             0                                9                             7.0937947899767779e-15           179.5153480716798                    179.5153480716798                      179.5153480716798                     3.4131879736056786e-16                5.491241074781912e-18         1.269015481458908e-19  20                   20                   0                    0                    7.0837608977009842e-16    8                            3                          1                   -0.0026273068496695884  0.0043743762358473348 -0.0062632754186739015
              6662319.4760059053          7.8041191889988807e-15      -3.449886307314914e-16        8                              0                                 7                                7                             0                                10                            6.7638929341496275e-15           179.61079539887223                   179.61079539887223                     179.61079539887223                    3.3978599197323308e-16                5.493600466428842e-18         1.3014970761518271e-19  20                   20                   0                    0                    6.9481651270197546e-16    9                            4                          1                   -0.0026945551358187759  0.0047320905609902902 -0.0066479441042921316
              6660670.1535609011          7.804249338706496e-15       1.301497076151828e-19        8                              0                                 8                                8                             0                                11                            6.7638929341496275e-15           179.61079539887223                   179.61079539887223                     179.61079539887223                    3.3978599197323308e-16                5.493600466428842e-18         2.6029941523036541e-19  40                   40                   0                    0                    6.9481651270197546e-16    10                           0                          2                   -0.0026945551358187759  0.0047320905609902902 -0.0066479441042921316
              6533244.0855122386          7.4760226747071139e-15      -3.2822666399938183e-16        9                              0                                 8                                8                             0                                12                            6.4508073824317537e-15           179.49167427861332                   179.61079539887223                     179.61079539887223                    3.383415062970569e-16                5.4968273050553738e-18         2.3567670265026054e-19  40                   40                   0                    0                    6.8114128197059735e-16    11                           1                          2                   -0.0024396669080377271  0.0050397081526934789 -0.0070149946765871978
              6405046.312683857           7.1585746182096824e-15      -3.1744805649743191e-16        10                             0                                 9                                9                             0                                13                            6.148726718982303e-15           178.72872309671646                   179.61079539887223                     179.61079539887223                    3.3695991340750063e-16                5.5006452328351529e-18         2.0738779689586602e-19  40                   40                   0                    0                    6.6717995279014712e-16    12                           2                          2                   -0.0021468271557096748  0.0052954023817670367 -0.007366699128891512
              6663392.0572427344          6.8523484252975643e-15      -3.0622619291211769e-16        11                             0                                 10                               10                            0                                14                            5.8580099399000165e-15           179.85625031520976                   179.85625031520976                     179.85625031520976                    3.3564494470217943e-16                5.5046645250253959e-18         1.7609000274448789e-19  40                   40                   0                    0                    6.5301278616759848e-16    13                           3                          2                   -0.0018228401352403457  0.0054868315241369875 -0.0077008573771582206
              6629157.7981332792          6.5743645378528229e-15      -2.7798388744474076e-16        12                             0                                 11                               11                            0                                15                            5.5946944787995692e-15           178.45380713611416                   179.85625031520976                     179.85625031520976                    3.3447306760940404e-16                5.5083260037045731e-18         1.4432403109470559e-19  40                   40                   0                    0                    6.3954434140905067e-16    14                           4                          2                   -0.0014940066571572594  0.0055959036095698514 -0.0079980237989477117
              6614963.2375069326          6.5744366998683709e-15       7.2162015547352928e-20        12                             0                                 12                               12                            0                                16                            5.5946944787995692e-15           178.45380713611416                   178.45380713611416                     179.85625031520976                    3.3447306760940404e-16                5.5083260037045731e-18         2.164860466420584e-19  60.000000000000007   60.000000000000007   0                    0                    6.3954434140905067e-16    15                           0                          3                   -0.0014940066571572594  0.0055959036095698514 -0.0079980237989477117
              6272617.3315053442          6.3097957487299892e-15      -2.6464095113838163e-16        13                             0                                 12                               12                            0                                17                            5.3445802788447334e-15           179.30849362162286                   179.30849362162286                     179.85625031520976                    3.3338385523489463e-16                5.51156418776297e-18         1.2204732495764175e-19  60.000000000000007   60.000000000000007   0                    0                    6.2619800313764008e-16    16                           1                          3                   -0.0008422691383728545  0.0056229778810047591 -0.0082780406959968179
              6059032.6345843123          6.0466710358710814e-15      -2.6312471285890727e-16        14                             0                                 13                               13                            0                                18                            5.0963677152863447e-15           178.7077039748269                    179.30849362162286                     179.85625031520976                    3.3233681230614249e-16                5.5144513213930364e-18         1.78905730704944e-20  60.000000000000007   60.000000000000007   0                    0                    6.1243416638413102e-16    17                           2                          3                   -0.00012346585695599402  0.0055642042786135347 -0.0085483290290723074
              6410131.4062888008          5.7908292154516998e-15      -2.5584182041938207e-16        15                             0                                 14                               14                            0                                19                            4.8554482454973736e-15           179.53387677595597                   179.53387677595597                     179.85625031520976                    3.3136620160706127e-16                5.5169018346054451e-18        -9.5313078842028201e-20  60.000000000000007   60.000000000000007   0                    0                    5.9859317959150154e-16    18                           3                          3                    0.0006577716047426774  0.0054084676876696453 -0.0088042905236270889
              6630050.785848151           5.5639080646825266e-15      -2.2692115076917275e-16        16                             0                                 15                               15                            0                                20                            4.6420892017191368e-15           178.5926849074003                    179.53387677595597                     179.85625031520976                    3.3055701496292949e-16                5.5188773938391956e-18        -2.0821493694929794e-19  60.000000000000007   60.000000000000007   0                    0                    5.8595118554357039e-16    19                           4                          3                    0.0014369263365789384  0.0051726262154114635 -0.0090286630688570565
              6643975.396709159           5.563838659703544e-15      -6.9404978983099256e-20        16                             0                                 16                               16                            0                                21                            4.6420892017191368e-15           178.5926849074003                    178.5926849074003                      179.85625031520976                    3.3055701496292949e-16                5.5188773938391956e-18        -2.7761991593239726e-19  80                   80                   0                    0                    5.8595118554357039e-16    20                           0                          4                    0.0014369263365789384  0.0051726262154114635 -0.0090286630688570565
              6576879.030753606           5.3576791803971568e-15      -2.0615947930638663e-16        17                             0                                 16                               16                            0                                22                            4.4485866261402375e-15           179.63314366871563                   179.63314366871563                     179.85625031520976                    3.2986938108739026e-16                5.5206844059629654e-18        -4.8976279686240521e-19  80                   80                   0                    0                    5.7419225156042866e-16    21                           1                          4                    0.0025349516410757807  0.0048647358495573587 -0.0092382949944775361
              6209292.1410584869          5.1614168164583774e-15      -1.9626236393878004e-16        18                             0                                 17                               17                            0                                23                            4.2645805798263783e-15           178.97640373891718                   179.63314366871563                     179.85625031520976                    3.2925939799695773e-16                5.5227725583216599e-18        -7.1438562238460506e-19  80                   80                   0                    0                    5.6276845169910429e-16    22                           2                          4                    0.0036975715947113155  0.0044864277028053333 -0.0094413160025958384
              6072978.2205160726          4.9658545176213201e-15      -1.9556229883705726e-16        19                             0                                 18                               18                            0                                24                            4.0814207071522948e-15           178.1958676860859                    179.63314366871563                     179.85625031520976                    3.2869472267353516e-16                5.5255838541334389e-18        -9.6296477259975875e-19  80                   80                   0                    0                    5.5117646871395582e-16    23                           3                          4                    0.0049841865209817532  0.0040213274500402194 -0.0096488306953387473
              6088925.7477914263          4.7783068988212981e-15      -1.8754761880002201e-16        20                             0                                 19                               19                            0                                25                            3.9059391815941742e-15           177.99180217003621                   179.63314366871563                     179.85625031520976                    3.2819330887337322e-16                5.5292901613145253e-18        -1.2279207254404032e-18  80                   80                   0                    0                    5.3987303891787638e-16    24                           4                          4                    0.006355565751435803  0.0034842629115239168 -0.0098541328425707213
              6104440.5441667289          4.7779999186399375e-15      -3.0698018136010099e-19        20                             0                                 20                               20                            0                                26                            3.9059391815941742e-15           177.99180217003621                   177.99180217003621                     179.85625031520976                    3.2819330887337322e-16                5.5292901613145253e-18        -1.534900906800504e-18  100.00000000000001   100.00000000000001   0                    0                    5.3987303891787638e-16    25                           0                          5                    0.006355565751435803  0.0034842629115239168 -0.0098541328425707213
              6251876.2781963097          4.602909149295409e-15      -1.7509076934452841e-16        21                             0                                 20                               20                            0                                27                            3.7424033926358213e-15           179.00534163241738                   179.00534163241738                     179.85625031520976                    3.2775744421567676e-16                5.5337491480802668e-18        -1.956889981745215e-18  100.00000000000001   100.00000000000001   0                    0                    5.2917145327757646e-16    26                           1                          5                    0.0081028963447763603  0.0028893362475118072 -0.010056027583077998
              6373642.5358099379          4.4423571159709359e-15      -1.6055203332447309e-16        22                             0                                 21                               21                            0                                28                            3.5925873138133733e-15           177.98023081749523                   179.00534163241738                     179.85625031520976                    3.2738025569899871e-16                5.5386246245149003e-18        -2.3822822467907326e-18  100.00000000000001   100.00000000000001   0                    0                    5.1923320408084025e-16    27                           2                          5                    0.0098643185308409029  0.0022627997107246725 -0.010242074725076888
              6810506.8632314205          4.2941252833635115e-15      -1.482318326074246e-16        23                             0                                 22                               22                            0                                29                            3.4543929039068352e-15           179.74173078668534                   179.74173078668534                     179.85625031520976                    3.2704378399851563e-16                5.5435301229428217e-18        -2.810787353430113e-18  100.00000000000001   100.00000000000001   0                    0                    5.0995585268864816e-16    28                           3                          5                    0.011638630063270377  0.0016115733705024244 -0.010409675894895902
              7236724.9813134028          4.1631956795946118e-15      -1.3092960376890006e-16        24                             0                                 23                               23                            0                                30                            3.3324368129362515e-15           178.47567089154944                   179.74173078668534                     179.85625031520976                    3.267493777513296e-16                5.5478861865159978e-18        -3.2208413837706217e-18  100.00000000000001   100.00000000000001   0                    0                    5.0168244410428527e-16    29                           4                          5                    0.013336541205236419  0.00097428421522446657 -0.010549792759523551
# Table End
