# ODT 1.0
# Table Start
# Title: mmArchive Data Table, Wed Jun 11 15:38:13 EDT 2014
# Columns: {Oxs_CGEvolve:evolve:Max mxHxm} {Oxs_CGEvolve:evolve:Total energy} {Oxs_CGEvolve:evolve:Delta E} {Oxs_CGEvolve:evolve:Bracket count} {Oxs_CGEvolve:evolve:Line min count} {Oxs_CGEvolve:evolve:Conjugate cycle count} {Oxs_CGEvolve:evolve:Cycle count} {Oxs_CGEvolve:evolve:Cycle sub count} {Oxs_CGEvolve:evolve:Energy calc count} Oxs_UniformExchange::Energy {Oxs_UniformExchange::Max Spin Ang} {Oxs_UniformExchange::Stage Max Spin Ang} {Oxs_UniformExchange::Run Max Spin Ang} Oxs_Demag::Energy    Oxs_FixedZeeman:leftadj:Energy Oxs_FixedZeeman:rightadj:Energy Oxs_MinDriver::Iteration {Oxs_MinDriver::Stage iteration} Oxs_MinDriver::Stage Oxs_MinDriver::mx    Oxs_MinDriver::my    Oxs_MinDriver::mz   
# Units:                 A/m                               J                                J                               {}                                   {}                                      {}                                     {}                                  {}                                     {}                                 J                              deg                                    deg                                      deg                           J                          J                               J                           {}                           {}                         {}                 {}                   {}                   {}           
                 560317.86134796648                1.6275435715641581e-16             1.6275435715641581e-16              0                                    0                                       1                                      1                                   0                                      1                                 2.4927453029209531e-17             8.5858909309485689                     8.5858909309485689                       8.5858909309485689             5.2171147986088811e-16      -1.9194228786684091e-16           -1.9194228786684093e-16          0                            0                          0                   -7.3953290713468789e-17  0.13088975284364801  0.0089995500337472119
                 558500.3160388628                 1.6264355075852483e-16            -1.1080639789097223e-19              1                                    0                                       1                                      1                                   0                                      2                                 2.491777212058546e-17             8.5944713119114802                     8.5944713119114802                       8.5944713119114802             5.2161472751415803e-16      -1.9194447443810934e-16           -1.9194447443810937e-16          1                            1                          0                   -7.3930511365616349e-17  0.13091549898357502  0.0089919656671343506
                 423615.60032835358                1.4264359396927126e-16            -1.9999956789253565e-17              2                                    0                                       1                                      1                                   0                                      3                                 2.3715064244366691e-17             10.319451359092922                     10.319451359092922                       10.319451359092922             5.0367501029262257e-16      -1.9237324028385899e-16           -1.9237324028385902e-16          2                            2                          0                   -7.4915358118377022e-17  0.13572411739431531  0.0074633347551147332
                 690128.34543144342                1.2777036826455801e-16            -1.4873225704713242e-17              3                                    0                                       2                                      2                                   0                                      4                                 2.5204125995198644e-17             11.809561700269931                     11.809561700269931                       11.809561700269931             4.8817056334272167e-16      -1.9280216053668111e-16           -1.9280216053668113e-16          3                            3                          0                   -7.5629836941704107e-17  0.1407824843250513   0.0058677136123681051
                 718309.128020284                  1.2723033603045928e-16            -5.4003223409872819e-19              4                                    0                                       2                                      2                                   0                                      5                                 2.5523092894129734e-17             11.896216164388379                     11.896216164388379                       11.896216164388379             4.873577839384143e-16      -1.9282527040104237e-16           -1.928252704010424e-16          4                            4                          0                   -7.5668381283033884e-17  0.14105250764937574  0.0057748811819084015
# Table End
