# ODT 1.0
# Table Start
# Title: mmArchive Data Table, Wed Aug 17 23:55:32 EDT 2011
# Columns: {Oxs_CGEvolve:evolve:Max mxHxm} {Oxs_CGEvolve:evolve:Total energy} {Oxs_CGEvolve:evolve:Delta E} {Oxs_CGEvolve:evolve:Bracket count} {Oxs_CGEvolve:evolve:Line min count} {Oxs_CGEvolve:evolve:Conjugate cycle count} {Oxs_CGEvolve:evolve:Cycle count} {Oxs_CGEvolve:evolve:Cycle sub count} {Oxs_CGEvolve:evolve:Energy calc count} Oxs_UniformExchange::Energy {Oxs_UniformExchange::Max Spin Ang} {Oxs_UniformExchange::Stage Max Spin Ang} {Oxs_UniformExchange::Run Max Spin Ang} Oxs_Demag::Energy    Oxs_FixedZeeman:leftadj:Energy Oxs_FixedZeeman:rightadj:Energy Oxs_MinDriver::Iteration {Oxs_MinDriver::Stage iteration} Oxs_MinDriver::Stage Oxs_MinDriver::mx    Oxs_MinDriver::my    Oxs_MinDriver::mz   
# Units:                 A/m                               J                                J                               {}                                   {}                                      {}                                     {}                                  {}                                     {}                                 J                              deg                                    deg                                      deg                           J                          J                               J                           {}                           {}                         {}                 {}                   {}                   {}           
                 371494.28317266743                1.6421452107788205e-16             1.6421452107788205e-16              0                                    0                                       1                                      1                                   1                                      1                                 2.4238945654825767e-17             33.871368489277991                     33.871368489277991                       33.871368489277991             5.2383150973015918e-16      -1.9192796715355121e-16           -1.9192796715355126e-16          0                            0                          0                    5.9117155615240328e-19  0.13088976253023837  0.0089995500337472171
                 370841.38569688197                1.6405628590668727e-16            -1.5823517119478138e-19              1                                    0                                       1                                      1                                   1                                      2                                 2.4226707851389933e-17             33.900802712366762                     33.900802712366762                       33.900802712366762             5.2369160228138115e-16      -1.9193101211304167e-16           -1.919310121130417e-16          1                            1                          0                   -9.4360075308941303e-18  0.13092854933273404  0.0089882742641331816
                 367525.45139854721                1.6295404909957277e-16            -1.1022368071145006e-18              2                                    0                                       1                                      1                                   1                                      3                                 2.414233490270737e-17             34.106839878769939                     34.106839878769939                       34.106839878769939             5.2271631069518921e-16      -1.9195229824916219e-16           -1.9195229824916229e-16          2                            2                          0                   -7.2532202466391018e-18  0.13119901208828499  0.0089093280265626299
# Table End
