# ODT 1.0
# Table Start
# Title: mmArchive Data Table, Wed Aug 17 23:55:35 EDT 2011
# Columns: {Oxs_CGEvolve:evolve:Max mxHxm} {Oxs_CGEvolve:evolve:Total energy} {Oxs_CGEvolve:evolve:Delta E} {Oxs_CGEvolve:evolve:Bracket count} {Oxs_CGEvolve:evolve:Line min count} {Oxs_CGEvolve:evolve:Conjugate cycle count} {Oxs_CGEvolve:evolve:Cycle count} {Oxs_CGEvolve:evolve:Cycle sub count} {Oxs_CGEvolve:evolve:Energy calc count} Oxs_UniformExchange::Energy {Oxs_UniformExchange::Max Spin Ang} {Oxs_UniformExchange::Stage Max Spin Ang} {Oxs_UniformExchange::Run Max Spin Ang} Oxs_Demag::Energy    Oxs_FixedZeeman:leftadj:Energy Oxs_FixedZeeman:rightadj:Energy Oxs_MinDriver::Iteration {Oxs_MinDriver::Stage iteration} Oxs_MinDriver::Stage Oxs_MinDriver::mx    Oxs_MinDriver::my    Oxs_MinDriver::mz   
# Units:                 A/m                               J                                J                               {}                                   {}                                      {}                                     {}                                  {}                                     {}                                 J                              deg                                    deg                                      deg                           J                          J                               J                           {}                           {}                         {}                 {}                   {}                   {}           
                 560317.86134736554                1.6275435715693986e-16             1.6275435715693986e-16              0                                    0                                       1                                      1                                   1                                      1                                 2.4927453029209525e-17             8.585890930948425                      8.585890930948425                        8.585890930948425              5.2171147986141221e-16      -1.9194228786684697e-16           -1.9194228786684692e-16          0                            0                          0                    1.1639826880127657e-16  0.1308897528437547   0.0089995500337001801
                 558500.31603825267                1.6264355075904869e-16            -1.1080639789117421e-19              1                                    0                                       1                                      1                                   1                                      2                                 2.4917772120585423e-17             8.5944713119115335                     8.5944713119115335                       8.5944713119115335             5.2161472751468203e-16      -1.9194447443811191e-16           -1.9194447443811171e-16          1                            1                          0                    5.3887561080045995e-17  0.13091549898357138  0.0089919656671341181
                 545756.6418097706                 1.6187089330882672e-16            -7.7265745022196523e-19              2                                    0                                       1                                      1                                   1                                      3                                 2.4851016261123535e-17             8.6545339440855376                     8.6545339440855376                       8.6545339440855376             5.209394088344907e-16      -1.9195976589338927e-16           -1.9195976589338925e-16          2                            2                          0                    5.7000093534043112e-17  0.13109523307193013  0.0089388677088820083
# Table End
