# ODT 1.0
# Table Start
# Title: mmArchive Data Table, Wed Jun 11 15:37:53 EDT 2014
# Columns: {Oxs_CGEvolve:evolve:Max mxHxm} {Oxs_CGEvolve:evolve:Total energy} {Oxs_CGEvolve:evolve:Delta E} {Oxs_CGEvolve:evolve:Bracket count} {Oxs_CGEvolve:evolve:Line min count} {Oxs_CGEvolve:evolve:Conjugate cycle count} {Oxs_CGEvolve:evolve:Cycle count} {Oxs_CGEvolve:evolve:Cycle sub count} {Oxs_CGEvolve:evolve:Energy calc count} Oxs_UniformExchange::Energy {Oxs_UniformExchange::Max Spin Ang} {Oxs_UniformExchange::Stage Max Spin Ang} {Oxs_UniformExchange::Run Max Spin Ang} Oxs_Demag::Energy    Oxs_FixedZeeman:leftadj:Energy Oxs_FixedZeeman:rightadj:Energy Oxs_MinDriver::Iteration {Oxs_MinDriver::Stage iteration} Oxs_MinDriver::Stage Oxs_MinDriver::mx    Oxs_MinDriver::my    Oxs_MinDriver::mz   
# Units:                 A/m                               J                                J                               {}                                   {}                                      {}                                     {}                                  {}                                     {}                                 J                              deg                                    deg                                      deg                           J                          J                               J                           {}                           {}                         {}                 {}                   {}                   {}           
                 371494.28317251074                1.642145210768069e-16             1.642145210768069e-16              0                                    0                                       1                                      1                                   0                                      1                                 2.4238945654825789e-17             33.87136848927814                      33.87136848927814                        33.87136848927814              5.2383150972908406e-16      -1.9192796715355144e-16           -1.9192796715355146e-16          0                            0                          0                   -1.0277321216278779e-16  0.13088976253024001  0.0089995500337471876
                 370841.38569672563                1.6405628590561249e-16            -1.5823517119442566e-19              1                                    0                                       1                                      1                                   0                                      2                                 2.4226707851389958e-17             33.900802712366918                     33.900802712366918                       33.900802712366918             5.2369160228030642e-16      -1.9193101211304192e-16           -1.9193101211304194e-16          1                            1                          0                   -1.027642637652093e-16  0.13092854933273379  0.0089882742641331486
                 289476.79786769708                1.3648569316057749e-16            -2.7570592745034987e-17              2                                    0                                       1                                      1                                   0                                      3                                 2.2736985054485998e-17             39.811625478495309                     39.811625478495309                       39.811625478495309             4.9879199602543112e-16      -1.9252164395966981e-16           -1.9252164395966983e-16          2                            2                          0                   -1.0021519170066994e-16  0.13792857948855206  0.006714838128746705
                 219075.66573332425                1.1664160657273191e-16            -1.9844086587845586e-17              3                                    0                                       2                                      2                                   0                                      4                                 2.2399088090721139e-17             46.046459279111986                     46.046459279111986                       46.046459279111986             4.8043477064468161e-16      -1.930961260813354e-16           -1.9309612608133543e-16          3                            3                          0                   -9.7100039120334716e-17  0.1449176003867986   0.0045666153996386091
                 218133.37934433771                1.1620077443622937e-16            -4.4083213650255334e-19              4                                    0                                       2                                      2                                   0                                      5                                 2.2410898412185542e-17             46.212240563725771                     46.212240563725771                       46.212240563725771             4.8001144364372448e-16      -1.9311078380984035e-16           -1.9311078380984035e-16          4                            4                          0                   -9.7011776389877018e-17  0.14508443408719804  0.0045093826752313848
# Table End
