# ODT 1.0
# Table Start
# Title: mmArchive Data Table, Wed Jun 11 15:37:56 EDT 2014
# Columns: {Oxs_CGEvolve:evolve:Max mxHxm} {Oxs_CGEvolve:evolve:Total energy} {Oxs_CGEvolve:evolve:Delta E} {Oxs_CGEvolve:evolve:Bracket count} {Oxs_CGEvolve:evolve:Line min count} {Oxs_CGEvolve:evolve:Conjugate cycle count} {Oxs_CGEvolve:evolve:Cycle count} {Oxs_CGEvolve:evolve:Cycle sub count} {Oxs_CGEvolve:evolve:Energy calc count} Oxs_UniformExchange::Energy {Oxs_UniformExchange::Max Spin Ang} {Oxs_UniformExchange::Stage Max Spin Ang} {Oxs_UniformExchange::Run Max Spin Ang} Oxs_Demag::Energy    Oxs_FixedZeeman:leftadj:Energy Oxs_FixedZeeman:rightadj:Energy Oxs_MinDriver::Iteration {Oxs_MinDriver::Stage iteration} Oxs_MinDriver::Stage Oxs_MinDriver::mx    Oxs_MinDriver::my    Oxs_MinDriver::mz   
# Units:                 A/m                               J                                J                               {}                                   {}                                      {}                                     {}                                  {}                                     {}                                 J                              deg                                    deg                                      deg                           J                          J                               J                           {}                           {}                         {}                 {}                   {}                   {}           
                 467342.98979438574                1.6305024546016178e-16             1.6305024546016178e-16              0                                    0                                       1                                      1                                   0                                      1                                 2.4780311930836559e-17             17.123773725805933                     17.123773725805933                       17.123773725805933             5.2214878159438584e-16      -1.9193942403253031e-16           -1.9193942403253034e-16          0                            0                          0                   -7.9950263076611345e-17  0.1308897623741378   0.0089995500337471859
                 466572.33804838627                1.6291920883329211e-16            -1.3103662686968357e-19              1                                    0                                       1                                      1                                   0                                      2                                 2.4769446835112996e-17             17.141016752970955                     17.141016752970955                       17.141016752970955             5.2203371654015936e-16      -1.9194197727099011e-16           -1.9194197727099014e-16          1                            1                          0                   -7.9933561158984642e-17  0.13092063997505274  0.0089904952260811202
                 330887.1496896965                 1.3953012724602261e-16            -2.3389081587269507e-17              2                                    0                                       1                                      1                                   0                                      3                                 2.3352204664078782e-17             20.606627836929842                     20.606627836929842                       20.606627836929842             5.0106029486742931e-16      -1.9244118614274271e-16           -1.9244118614274273e-16          2                            2                          0                   -7.9024652099857209e-17  0.13660358874323481  0.0071651064669481027
                 261202.92886061902                1.2111574961471825e-16            -1.8414377631304351e-17              3                                    0                                       2                                      2                                   0                                      4                                 2.2833038036814784e-17             24.161050030767328                     24.161050030767328                       24.161050030767328             4.8417283144720824e-16      -1.929450599346524e-16           -1.9294505993465243e-16          3                            3                          0                   -7.8454452656639978e-17  0.14242692163652088  0.0053318513006908536
                 256139.19721636659                1.1909951243804404e-16            -2.0162371766742018e-18              4                                    0                                       2                                      2                                   0                                      5                                 2.2858813621385145e-17             24.622408326793408                     24.622408326793408                       24.622408326793408             4.8225683801942551e-16      -1.9300806960138332e-16           -1.9300806960138332e-16          4                            4                          0                   -7.8380728296689742e-17  0.14310735958418222  0.005093750757904152
# Table End
