# ODT 1.0
# Table Start
# Title: mmArchive Data Table, Wed Aug 17 23:55:32 EDT 2011
# Columns: {Oxs_CGEvolve:evolve:Max mxHxm} {Oxs_CGEvolve:evolve:Total energy} {Oxs_CGEvolve:evolve:Delta E} {Oxs_CGEvolve:evolve:Bracket count} {Oxs_CGEvolve:evolve:Line min count} {Oxs_CGEvolve:evolve:Conjugate cycle count} {Oxs_CGEvolve:evolve:Cycle count} {Oxs_CGEvolve:evolve:Cycle sub count} {Oxs_CGEvolve:evolve:Energy calc count} Oxs_UniformExchange::Energy {Oxs_UniformExchange::Max Spin Ang} {Oxs_UniformExchange::Stage Max Spin Ang} {Oxs_UniformExchange::Run Max Spin Ang} Oxs_Demag::Energy    Oxs_FixedZeeman:leftadj:Energy Oxs_FixedZeeman:rightadj:Energy Oxs_MinDriver::Iteration {Oxs_MinDriver::Stage iteration} Oxs_MinDriver::Stage Oxs_MinDriver::mx    Oxs_MinDriver::my    Oxs_MinDriver::mz   
# Units:                 A/m                               J                                J                               {}                                   {}                                      {}                                     {}                                  {}                                     {}                                 J                              deg                                    deg                                      deg                           J                          J                               J                           {}                           {}                         {}                 {}                   {}                   {}           
                 467342.98979465908                1.6305024546228658e-16             1.6305024546228658e-16              0                                    0                                       1                                      1                                   1                                      1                                 2.4780311930836559e-17             17.123773725805798                     17.123773725805798                       17.123773725805798             5.2214878159651074e-16      -1.919394240325276e-16           -1.919394240325277e-16          0                            0                          0                    2.2737367544323205e-20  0.13088976237413572  0.0089995500337510213
                 466572.33804865403                1.6291920883541617e-16            -1.310366268704088e-19              1                                    0                                       1                                      1                                   1                                      2                                 2.4769446835112984e-17             17.141016752970959                     17.141016752970959                       17.141016752970959             5.2203371654228346e-16      -1.919419772709873e-16           -1.9194197727098715e-16          1                            1                          0                   -2.8765612114511894e-17  0.13092063997505354  0.0089904952260812104
                 461161.90843357844                1.6200577662639504e-16            -9.1343220902113359e-19              2                                    0                                       1                                      1                                   1                                      3                                 2.4694424169912575e-17             17.261717731971466                     17.261717731971466                       17.261717731971466             5.212310147349738e-16      -1.9195983113924489e-16           -1.9195983113924496e-16          2                            2                          0                   -2.7245050659985281e-17  0.13113608920700812  0.0089271011021546855
# Table End
