# ODT 1.0
# Table Start
# Title: mmArchive Data Table, Wed Jun 16 18:44:19 EDT 2010
# Columns: {Oxs_EulerEvolve:evolve:Total energy} {Oxs_EulerEvolve:evolve:Energy calc count} {Oxs_EulerEvolve:evolve:Max dm/dt} Oxs_EulerEvolve:evolve:dE/dt {Oxs_EulerEvolve:evolve:Delta E} Oxs_Demag::Energy    Oxs_TimeDriver::Iteration {Oxs_TimeDriver::Stage iteration} Oxs_TimeDriver::Stage Oxs_TimeDriver::mx   Oxs_TimeDriver::my   Oxs_TimeDriver::mz   {Oxs_TimeDriver::Max Spin Ang} {Oxs_TimeDriver::Stage Max Spin Ang} {Oxs_TimeDriver::Run Max Spin Ang} {Oxs_TimeDriver::Last time step} {Oxs_TimeDriver::Simulation time}
# Units:                     J                                       {}                                   deg/ns                           J/s                             J                         J                       {}                            {}                          {}                   {}                   {}                   {}                        deg                               deg                                 deg                                s                                 s                
                    2.5779803771822873e-16                      1                                      4470.86492542613               -1.2721872253085091e-06            0                          2.5779803771822873e-16    0                             0                           0                     1                    0                    0                         0                                 0                                   0                                 0                                0                         
                    2.5779519208697427e-16                      2                                      4470.7467056248606             -1.2720539644400922e-06           -2.8456312544365633e-21        2.5779519208697427e-16    1                             1                           0                     0.99999999982502885 -4.2330319073103156e-23  1.4028203918587875e-23       0.0028770749344343986               0.0028770749344343986                 0.0028770749344343986               2.2367036729580627e-15              2.2367036729580627e-15       
                    2.5779163538124523e-16                      3                                      4470.5989733841707             -1.2718874832763922e-06           -3.5567057290734403e-21        2.5779163538124523e-16    2                             2                           0                     0.9999999991142593  -9.5116988829517526e-23  3.1733564208455063e-23       0.0064730361721976092               0.0064730361721976092                 0.0064730361721976092               2.7958795911975785e-15              5.0325832641556416e-15       
# Table End
