# ODT 1.0
# Table Start
# Title: mmArchive Data Table, Wed Jun 11 15:38:42 EDT 2014
# Columns: {Oxs_EulerEvolve:evolve:Total energy} {Oxs_EulerEvolve:evolve:Energy calc count} {Oxs_EulerEvolve:evolve:Max dm/dt} Oxs_EulerEvolve:evolve:dE/dt {Oxs_EulerEvolve:evolve:Delta E} Oxs_Demag::Energy    Oxs_TimeDriver::Iteration {Oxs_TimeDriver::Stage iteration} Oxs_TimeDriver::Stage Oxs_TimeDriver::mx   Oxs_TimeDriver::my   Oxs_TimeDriver::mz   {Oxs_TimeDriver::Max Spin Ang} {Oxs_TimeDriver::Stage Max Spin Ang} {Oxs_TimeDriver::Run Max Spin Ang} {Oxs_TimeDriver::Last time step} {Oxs_TimeDriver::Simulation time}
# Units:                     J                                       {}                                   deg/ns                           J/s                             J                         J                       {}                            {}                          {}                   {}                   {}                   {}                        deg                               deg                                 deg                                s                                 s                
                    2.5779803772115974e-16                      1                                      4470.8649254190241             -1.2721872252969183e-06            0                          2.5779803772115974e-16    0                             0                           0                     1                    0                    0                         0                                 0                                   0                                 0                                0                         
                    2.5779519208990533e-16                      2                                      4470.7467056177557             -1.2720539644285035e-06           -2.845631254415149e-21        2.5779519208990533e-16    1                             1                           0                     0.99999999982502885 -2.2817373533136342e-25  5.9478653556196971e-26       0.0028770747679458266               0.0028770747679458266                 0.0028770747679458266               2.2367036729616177e-15              2.2367036729616177e-15       
                    2.5779163538417629e-16                      3                                      4470.5989733770666             -1.2718874832648063e-06           -3.5567057290466992e-21        2.5779163538417629e-16    2                             2                           0                     0.9999999991142593  -3.3908422944484153e-25  2.3051154626578528e-25       0.0064730361201126773               0.0064730361201126773                 0.0064730361201126773               2.7958795912020221e-15              5.0325832641636398e-15       
                    2.5778719002249014e-16                      4                                      4470.4143744575113             -1.27167953008626e-06           -4.4453616861498625e-21        2.5778719002249014e-16    3                             3                           0                     0.99999999745709778 -4.1897637702986709e-25  4.854515227303846e-25       0.010967390660018802               0.010967390660018802                 0.010967390660018802               3.4948494890025277e-15              8.5274327531661667e-15       
                    2.5778163413290837e-16                      5                                      4470.1837294467041             -1.2714198202177441e-06           -5.5558895817775792e-21        2.5778163413290837e-16    4                             4                           0                     0.99999999418481855 -7.7086774463719362e-25  4.2758223177397083e-25       0.01658440057883577               0.01658440057883577                 0.01658440057883577               4.3685618612531598e-15              1.2895994614419327e-14       
# Table End
