# ODT 1.0
# Table Start
# Title: mmArchive Data Table, Tue Jul 13 22:40:23 EDT 2021
# Columns: {Oxs_CGEvolve::Max mxHxm} {Oxs_CGEvolve::Total energy} {Oxs_CGEvolve::Delta E} {Oxs_CGEvolve::Bracket count} {Oxs_CGEvolve::Line min count} {Oxs_CGEvolve::Conjugate cycle count} {Oxs_CGEvolve::Cycle count} {Oxs_CGEvolve::Cycle sub count} {Oxs_CGEvolve::Energy calc count} Oxs_UniformExchange::Energy {Oxs_UniformExchange::Max Spin Ang} {Oxs_UniformExchange::Stage Max Spin Ang} {Oxs_UniformExchange::Run Max Spin Ang} Oxs_UniaxialAnisotropy::Energy Oxs_UZeeman::Energy  Oxs_UZeeman::B       Oxs_UZeeman::Bx      Oxs_UZeeman::By      Oxs_UZeeman::Bz      Oxs_Demag::Energy    Oxs_MinDriver::Iteration {Oxs_MinDriver::Stage iteration} Oxs_MinDriver::Stage Oxs_MinDriver::mx    Oxs_MinDriver::my    Oxs_MinDriver::mz   
# Units:              A/m                         J                          J                         {}                             {}                                {}                               {}                            {}                               {}                              J                              deg                                    deg                                      deg                                 J                         J                 mT                   mT                   mT                   mT                     J                       {}                           {}                         {}                 {}                   {}                   {}           
              5183650.4716287032          1.5774642973975508e-16       1.5774642973975508e-16        0                              0                                 1                                1                             0                                1                              1.3497300102236933e-16             171.57303097851931                     171.57303097851931                       171.57303097851931                  6.4199999999999997e-18       0                    0                    0                    0                    0                    1.6353428717385734e-17    0                            0                          0                    0.20411494943499051  0.15325558503374134  0                  
              5180747.6303067282          1.5755574880720865e-16      -1.9068093254643157e-19        1                              0                                 1                                1                             0                                2                              1.3478735618004352e-16             171.5627905870015                      171.57303097851931                       171.57303097851931                  6.4200006387423102e-18       0                    0                    0                    0                    0                    1.6348391988422843e-17    1                            1                          0                    0.20411527138178628  0.15325624116157155  6.0088180613961957e-23
              4548153.7463318547          1.2381076302803178e-16      -3.374498577917687e-17        2                              0                                 1                                1                             0                                3                              1.0185846410474808e-16             169.50421394216838                     171.57303097851931                       171.57303097851931                  6.4456749511261914e-18       0                    0                    0                    0                    0                    1.5506623972157491e-17    2                            2                          0                    0.2041387244637434   0.15331707657583207  1.0575519788057304e-20
              3742761.9401926761          1.0024816475890937e-16      -2.3562598269122418e-17        3                              0                                 2                                2                             0                                4                              7.8778364608217365e-17             166.35293180777543                     171.57303097851931                       171.57303097851931                  6.5091732834591058e-18       0                    0                    0                    0                    0                    1.4960626867232899e-17    3                            3                          0                    0.20406105089980719  0.15314754368477426  3.8456435592935652e-21
              2650734.6670551007          8.322786520410716e-17      -1.7020299554802205e-17        4                              0                                 3                                3                             0                                5                              6.2042635644484396e-17             161.81548458294546                     171.57303097851931                       171.57303097851931                  6.5983478263435486e-18       0                    0                    0                    0                    0                    1.4586881733279213e-17    4                            4                          0                    0.20389942844472167  0.15277265578251217 -1.9228217796467826e-20
              2666572.7863608454          7.9370088017933029e-17      -3.8577771861741304e-18        4                              0                                 4                                4                             0                                6                              6.2042635644484396e-17             161.81548458294546                     161.81548458294546                       171.57303097851931                  6.5983478263435486e-18      -3.8577771861741319e-18  20                   20                   0                    0                    1.4586881733279213e-17    5                            0                          1                    0.20389942844472167  0.15277265578251217 -1.9228217796467826e-20
              2222016.8377838978          6.7389917223616973e-17      -1.1980170794316057e-17        5                              0                                 4                                4                             0                                7                              5.0225721210230839e-17             155.4904187158842                      161.81548458294546                       171.57303097851931                  6.7024980895308677e-18      -3.8593803520740934e-18  20                   20                   0                    0                    1.4321078275929362e-17    6                            1                          1                    0.2039841623717806   0.15222798064080717  1.1536930677880696e-20
              2208729.7897272557          6.6205671392737291e-17      -1.1842458308796813e-18        6                              0                                 4                                4                             0                                8                              4.9052967022941044e-17             154.7259625223507                      161.81548458294546                       171.57303097851931                  6.7168665874814275e-18      -3.8595238628541496e-18  20                   20                   0                    0                    1.4295361645168968e-17    7                            2                          1                    0.20399174750814769  0.15216187905583017 -1.1536930677880696e-20
              2009156.2305991936          5.8069921279216834e-17      -8.1357501135204577e-18        7                              0                                 5                                5                             0                                9                              4.1042252783309729e-17             145.84228803132692                     161.81548458294546                       171.57303097851931                  6.8288336995275117e-18      -3.8605087143214841e-18  20                   20                   0                    0                    1.4059343510701074e-17    8                            3                          1                    0.20404380096836605  0.15141828654765155 -4.6147722711522783e-20
              1703760.3025459347          5.3079139795135546e-17      -4.9907814840812879e-18        8                              0                                 6                                6                             0                                10                             3.6176007512605018e-17             136.54711952286769                     161.81548458294546                       171.57303097851931                  6.9216866397846929e-18      -3.8607126872285298e-18  20                   20                   0                    0                    1.3842158329974362e-17    9                            4                          1                    0.20405458177740646  0.1506230296976345   3.8456435592935652e-20
              1719334.505786686           4.9218427107907017e-17      -3.8607126872285283e-18        8                              0                                 7                                7                             0                                11                             3.6176007512605018e-17             136.54711952286769                     136.54711952286769                       171.57303097851931                  6.9216866397846929e-18      -7.7214253744570597e-18  40                   40                   0                    0                    1.3842158329974362e-17    10                           0                          2                    0.20405458177740646  0.1506230296976345   3.8456435592935652e-20
              1356178.6509331274          4.5576666535221537e-17      -3.6417605726854807e-18        9                              0                                 7                                7                             0                                12                             3.2679496687027999e-17             126.91465742095818                     136.54711952286769                       171.57303097851931                  7.0091154483610666e-18      -7.7436017628696506e-18  40                   40                   0                    0                    1.3631656162702121e-17    11                           1                          2                    0.20464063855363762  0.14972246330996131 -7.6912871185871305e-21
              983742.87341886538          4.2603149962728459e-17      -2.9735165724930778e-18        10                             0                                 8                                8                             0                                13                             2.987699412601737e-17             118.74316713496637                     136.54711952286769                       171.57303097851931                  7.0971129239629288e-18      -7.7694150681977726e-18  40                   40                   0                    0                    1.3398457980945934e-17    12                           2                          2                    0.20532280835617797  0.14860432530280007  7.6912871185871305e-20
              978104.84557378606          4.2565718903757299e-17      -3.7431058971159625e-20        11                             0                                 8                                8                             0                                14                             2.984165894894442e-17             118.69404537917879                     136.54711952286769                       171.57303097851931                  7.0984419132046762e-18      -7.769773366072135e-18  40                   40                   0                    0                    1.3395391407680335e-17    13                           3                          2                    0.2053322771160713   0.14858833057491488 -1.2306059389739409e-19
              657242.98075121024          4.0078940040237997e-17      -2.4867788635193019e-18        12                             0                                 9                                9                             0                                15                             2.7553039121042564e-17             115.97961552345033                     136.54711952286769                       171.57303097851931                  7.1873037073023346e-18      -7.7997802198990522e-18  40                   40                   0                    0                    1.3138377431792151e-17    14                           4                          2                    0.20612527008189888  0.14717885543073175  8.4604158304458429e-20
              672142.43167401757          3.6179049930288468e-17      -3.8998901099495292e-18        12                             0                                 10                               10                            0                                16                             2.7553039121042564e-17             115.97961552345033                     115.97961552345033                       171.57303097851931                  7.1873037073023346e-18      -1.1699670329848581e-17  60.000000000000014   60.000000000000014   0                    0                    1.3138377431792151e-17    15                           0                          3                    0.20612527008189888  0.14717885543073175  8.4604158304458429e-20
              423478.07273770316          3.4036103989879751e-17      -2.1429459404087172e-18        13                             0                                 10                               10                            0                                17                             2.5677447507751183e-17             114.00299887295203                     115.97961552345033                       171.57303097851931                  7.2828337110576314e-18      -1.1821385096267952e-17  60.000000000000014   60.000000000000014   0                    0                    1.2897207867338887e-17    16                           1                          3                    0.20826964581162674  0.14547505368332397  9.8063910761985912e-20
              346359.69604020403          3.3495511110156898e-17      -5.405928797228527e-19        14                             0                                 10                               10                            0                                18                             2.5204815020251403e-17             113.42580715685567                     115.97961552345033                       171.57303097851931                  7.3129868711238537e-18      -1.18564470255096e-17  60.000000000000014   60.000000000000014   0                    0                    1.2834156244291242e-17    17                           2                          3                    0.20888736831412247  0.1449757121569778  -3.461079203364209e-20
              216489.14079333143          3.1427981029289402e-17      -2.0675300808674965e-18        15                             0                                 11                               11                            0                                19                             2.3494402128503801e-17             111.1433030660294                      115.97961552345033                       171.57303097851931                  7.4311694080802275e-18      -1.2037410484984417e-17  60.000000000000014   60.000000000000014   0                    0                    1.2539819977689791e-17    18                           3                          3                    0.21207558993982412  0.14230173942505567 -5.3839009830109913e-20
              240731.96892683153          3.0513664501594471e-17      -9.1431652769493139e-19        16                             0                                 11                               11                            0                                20                             2.2742329549406691e-17             109.87288130311266                     115.97961552345033                       171.57303097851931                  7.5045132057949917e-18      -1.2135736886315877e-17  60.000000000000014   60.000000000000014   0                    0                    1.2402558632708662e-17    19                           4                          3                    0.21380790849746054  0.14081728853413267 -4.3071207864087931e-19
              249383.81064836131          2.6468418872822512e-17      -4.0452456287719586e-18        16                             0                                 12                               12                            0                                21                             2.2742329549406691e-17             109.87288130311266                     109.87288130311266                       171.57303097851931                  7.5045132057949917e-18      -1.6180982515087834e-17  80                   80                   0                    0                    1.2402558632708662e-17    20                           0                          4                    0.21380790849746054  0.14081728853413267 -4.3071207864087931e-19
              696516.71709946636          2.5863937474416307e-17      -6.0448139840620543e-19        17                             1                                 12                               12                            0                                23                             2.2429218418497176e-17             107.64974350905477                     109.87288130311266                       171.57303097851931                  7.5725914136589516e-18      -1.6445096383011849e-17  80                   80                   0                    0                    1.2307224025272029e-17    21                           1                          4                    0.21729778518778875  0.13906938572772726 -1.6920831660891686e-19
              421114.56377345615          2.2806888790921451e-17      -3.0570486834948554e-18        18                             1                                 12                               13                            1                                24                             2.0387528875909523e-17             99.00188615231427                      109.87288130311266                       171.57303097851931                  7.8887015963340347e-18      -1.7532288949801534e-17  80                   80                   0                    0                    1.206294726847943e-17    22                           2                          4                    0.2316634374973775   0.13171245102704482  3.3841663321783372e-19
              188858.82626361714          2.2568746361370252e-17      -2.3814242955119937e-19        19                             2                                 13                               14                            0                                26                             2.0214041648647197e-17             98.977451431228246                     109.87288130311266                       171.57303097851931                  7.8974023523361042e-18      -1.759742248880245e-17  80                   80                   0                    0                    1.2054724849189404e-17    23                           3                          4                    0.23252408151166024  0.13126460192033162  9.2295445423045566e-20
              176522.79764876908          2.2378065626980302e-17      -1.9068073438994937e-19        20                             2                                 13                               15                            1                                27                             2.0120814177463981e-17             98.778333277028025                     109.87288130311266                       171.57303097851931                  7.915411804386695e-18      -1.7705125058150695e-17  80                   80                   0                    0                    1.2046964703280325e-17    24                           4                          4                    0.23394721271340752  0.13052176750786371  3.0765148474348522e-20
              186694.98281128175          1.7951784362442629e-17      -4.4262812645376738e-18        20                             2                                 14                               16                            0                                28                             2.0120814177463981e-17             98.778333277028025                     98.778333277028025                       171.57303097851931                  7.915411804386695e-18      -2.2131406322688372e-17  100                  100                  0                    0                    1.2046964703280325e-17    25                           0                          5                    0.23394721271340752  0.13052176750786371  3.0765148474348522e-20
              189644.05959359041          1.7723362465522002e-17      -2.2842189692062666e-19        21                             2                                 14                               16                            0                                29                             2.0041847732537603e-17             98.475311709763915                     98.778333277028025                       171.57303097851931                  7.9413164620968635e-18      -2.2325463124052037e-17  100                  100                  0                    0                    1.2065661394939569e-17    26                           1                          5                    0.23599855310837237  0.12986285156858587 -6.1530296948697044e-20
              670627.861886753            1.7668022534690794e-17      -5.5339930831208009e-20        22                             2                                 14                               16                            0                                30                             2.0258731405783702e-17             97.886278139058433                     98.778333277028025                       171.57303097851931                  7.993755593714396e-18      -2.2699475640214107e-17  100                  100                  0                    0                    1.2115011175406803e-17    27                           2                          5                    0.2399521737866184   0.12858041596922193  5.5377267253827344e-19
              476968.77245744172          1.7629291025097729e-17      -3.8731509593065204e-20        22                             3                                 14                               16                            0                                31                             2.0116092389236168e-17             98.11725302549128                      98.778333277028025                       171.57303097851931                  7.9728688099295484e-18      -2.2553307453971285e-17  100                  100                  0                    0                    1.2093637279903294e-17    28                           3                          5                    0.23840705553880839  0.12908353555476904  3.6918178169218226e-19
              447026.2706719322           1.5403260103824812e-17      -2.2260309212729164e-18        23                             3                                 14                               17                            1                                32                             1.9419072094049137e-17             98.091936607157052                     98.778333277028025                       171.57303097851931                  8.3285920711745251e-18      -2.4841695435126141e-17  100                  100                  0                    0                    1.2497291373727291e-17    29                           4                          5                    0.26259720333114311  0.12097903112947808  9.7833172148428305e-18
# Table End
