# ODT 1.0
# Table Start
# Title: mmArchive Data Table, Wed Jun 11 15:38:57 EDT 2014
# Columns: {Oxs_CGEvolve::Max mxHxm} {Oxs_CGEvolve::Total energy} {Oxs_CGEvolve::Delta E} {Oxs_CGEvolve::Bracket count} {Oxs_CGEvolve::Line min count} {Oxs_CGEvolve::Conjugate cycle count} {Oxs_CGEvolve::Cycle count} {Oxs_CGEvolve::Cycle sub count} {Oxs_CGEvolve::Energy calc count} Oxs_UniformExchange::Energy {Oxs_UniformExchange::Max Spin Ang} {Oxs_UniformExchange::Stage Max Spin Ang} {Oxs_UniformExchange::Run Max Spin Ang} Oxs_UniaxialAnisotropy::Energy Oxs_UZeeman::Energy  Oxs_UZeeman::B       Oxs_UZeeman::Bx      Oxs_UZeeman::By      Oxs_UZeeman::Bz      Oxs_Demag::Energy    Oxs_MinDriver::Iteration {Oxs_MinDriver::Stage iteration} Oxs_MinDriver::Stage Oxs_MinDriver::mx    Oxs_MinDriver::my    Oxs_MinDriver::mz   
# Units:              A/m                         J                          J                         {}                             {}                                {}                               {}                            {}                               {}                              J                              deg                                    deg                                      deg                                 J                         J                 mT                   mT                   mT                   mT                     J                       {}                           {}                         {}                 {}                   {}                   {}           
              4997955.3919479521          1.6743124574311463e-16       1.6743124574311463e-16        0                              0                                 1                                1                             0                                1                              1.4008369314157754e-16             171.57303097851934                     171.57303097851934                       171.57303097851934                  7.9400000000000009e-18       0                    0                    0                    0                    0                    1.9407552601537086e-17    0                            0                          0                    0.2030747657147477   0.15134551624345299  0                  
              4993770.247539496           1.6722173113783866e-16      -2.0951460527596139e-19        1                              0                                 1                                1                             0                                2                              1.3987957548360429e-16             171.54649675979934                     171.57303097851934                       171.57303097851934                  7.9400007390929966e-18       0                    0                    0                    0                    0                    1.9402154915141387e-17    1                            1                          0                    0.20307456326659099  0.15134653688725599 -5.4665265465020505e-26
              4291543.4820983624          1.3053405659481407e-16      -3.6687674543024597e-17        2                              0                                 1                                1                             0                                3                              1.0405400367058001e-16             166.21342806309181                     171.57303097851934                       171.57303097851934                  7.9696849018663964e-18       0                    0                    0                    0                    0                    1.851036802236767e-17    2                            2                          0                    0.20300024155167487  0.15146808273973858 -6.035268241301078e-23
              3300556.4976108344          1.0546716371740115e-16      -2.5066892877412937e-17        3                              0                                 2                                2                             0                                4                              7.9484683392760574e-17             160.62249446250976                     171.57303097851934                       171.57303097851934                  8.0431928776951894e-18       0                    0                    0                    0                    0                    1.7939287446945376e-17    3                            3                          0                    0.2028289575173351   0.15136911669076469 -1.7739598534320742e-23
              2481490.13096222            8.7659063916672048e-17      -1.7808099800729092e-17        4                              0                                 3                                3                             0                                5                              6.1972179615600051e-17             154.08167266267779                     171.57303097851934                       171.57303097851934                  8.147158190823949e-18       0                    0                    0                    0                    0                    1.7539726110248053e-17    4                            4                          0                    0.20256199914956652  0.15104704654952303 -1.2774413314526946e-22
              2494082.4239305058          8.2930456608524564e-17      -4.7286073081474815e-18        4                              0                                 4                                4                             0                                6                              6.1972179615600051e-17             154.08167266267779                     154.08167266267779                       171.57303097851934                  8.147158190823949e-18      -4.7286073081474815e-18  20                   20                   0                    0                    1.7539726110248053e-17    5                            0                          1                    0.20256199914956652  0.15104704654952303 -1.2774413314526946e-22
              2486551.6498713102          7.0857336347131894e-17      -1.2073120261392673e-17        5                              0                                 4                                4                             0                                7                              5.0083496608765778e-17             146.01340615647942                     154.08167266267779                       171.57303097851934                  8.2653913039316968e-18      -4.7284909215730077e-18  20                   20                   0                    0                    1.7236939356007428e-17    6                            1                          1                    0.20255701343270249  0.15053788864003079  6.2207492983623403e-23
              2479254.1298337472          6.9876203673948269e-17      -9.8113267318363043e-19        6                              0                                 4                                4                             0                                8                              4.9114162950900722e-17             145.2137707272982                      154.08167266267779                       171.57303097851934                  8.2788469125579822e-18      -4.7284274523885056e-18  20                   20                   0                    0                    1.7211621262878069e-17    7                            2                          1                    0.20255429456770496  0.15048539792661947 -1.9285274009831263e-22
              2305756.0502909953          6.289672384007567e-17      -6.9794798338725966e-18        7                              0                                 5                                5                             0                                9                              4.2294450277161989e-17             136.2531575870523                      154.08167266267779                       171.57303097851934                  8.3799230811736369e-18      -4.7274070886617439e-18  20                   20                   0                    0                    1.694975757040179e-17    8                            3                          1                    0.20251058467536595  0.14990046597750936 -1.3430730901051415e-22
              1990711.9161900522          5.8202722370580175e-17      -4.6940014694954998e-18        8                              0                                 6                                6                             0                                10                             3.7765876583017821e-17             126.87688510404051                     154.08167266267779                       171.57303097851934                  8.4675511720874214e-18      -4.725677515023683e-18  20                   20                   0                    0                    1.669497213049861e-17    9                            4                          1                    0.20243649396091853  0.14928193845584112 -2.8697248674555324e-22
              2006442.1247687247          5.3477044855556485e-17      -4.725677515023683e-18        8                              0                                 7                                7                             0                                11                             3.7765876583017821e-17             126.87688510404051                     126.87688510404051                       171.57303097851934                  8.4675511720874214e-18      -9.451355030047366e-18  40                   40                   0                    0                    1.669497213049861e-17    10                           0                          2                    0.20243649396091853  0.14928193845584112 -2.8697248674555324e-22
              1600256.6754704923          4.9861553856556233e-17      -3.6154909990002539e-18        9                              0                                 7                                7                             0                                12                             3.4335845155214746e-17             123.76488713300391                     126.87688510404051                       171.57303097851934                  8.5513165460269683e-18      -9.4704925184249361e-18  40                   40                   0                    0                    1.6444884673739453e-17    11                           1                          2                    0.20284639561396792  0.14859024911168642 -8.9791855315811148e-23
              1147836.9670499223          4.6766294631043186e-17      -3.0952592255130467e-18        10                             0                                 8                                8                             0                                13                             3.1458056809652207e-17             121.60616661954418                     126.87688510404051                       171.57303097851934                  8.6373468466676849e-18      -9.4927540073920043e-18  40                   40                   0                    0                    1.6163644982115297e-17    12                           2                          2                    0.20332320954832084  0.14773355097816793  1.320244652312986e-22
              1146354.0186502291          4.6757806814919553e-17      -8.4878161236348309e-21        11                             0                                 8                                8                             0                                14                             3.1450169748956016e-17             121.59955646206775                     126.87688510404051                       171.57303097851934                  8.6376242097718381e-18      -9.4928202874229626e-18  40                   40                   0                    0                    1.616283314361466e-17    13                           3                          2                    0.20332462918572139  0.14773091839700975  1.3126351730489343e-23
              739062.02786747389          4.4102914983044609e-17      -2.6548918318749445e-18        12                             0                                 9                                9                             0                                15                             2.9045087637208231e-17             119.81030181480729                     126.87688510404051                       171.57303097851934                  8.7246803509275594e-18      -9.5183297796721203e-18  40                   40                   0                    0                    1.5851476774580934e-17    14                           4                          2                    0.20387101138776817  0.14666589099649036  3.4242656688233068e-24
              753730.52662002924          3.9343750093208543e-17      -4.7591648898360601e-18        12                             0                                 10                               10                            0                                16                             2.9045087637208231e-17             119.81030181480729                     119.81030181480729                       171.57303097851934                  8.7246803509275594e-18      -1.427749466950818e-17  60.000000000000007   60.000000000000007   0                    0                    1.5851476774580934e-17    15                           0                          3                    0.20387101138776817  0.14666589099649036  3.4242656688233068e-24
              447738.31695659866          3.7006399909195932e-17      -2.3373501840126154e-18        13                             0                                 10                               10                            0                                17                             2.7032617505240944e-17             118.02305519624922                     119.81030181480729                       171.57303097851934                  8.817888029616958e-18      -1.4393353574087224e-17  60.000000000000007   60.000000000000007   0                    0                    1.5549247948425256e-17    16                           1                          3                    0.20552538231218903  0.14537664173211642 -3.6145026504246013e-24
              332607.98663217225          3.6279172842427055e-17      -7.2722706676887548e-19        14                             0                                 10                               10                            0                                18                             2.6409557930695217e-17             117.37920617499232                     119.81030181480729                       171.57303097851934                  8.8541243568924544e-18      -1.443441336146853e-17  60.000000000000007   60.000000000000007   0                    0                    1.5449903916307911e-17    17                           2                          3                    0.20611168268032509  0.14491260364247488 -7.1148631118884265e-23
              257407.79529920177          3.3890793013990008e-17      -2.3883798284370463e-18        15                             0                                 11                               11                            0                                19                             2.4481132645189525e-17             113.93779545233075                     119.81030181480729                       171.57303097851934                  8.9764126101204452e-18      -1.4615729535700287e-17  60.000000000000007   60.000000000000007   0                    0                    1.5048977294380328e-17    18                           3                          3                    0.20870073017620924  0.14277982506330805  3.3348542874706983e-22
              201233.52729180778          3.2363471460343105e-17      -1.5273215536469038e-18        16                             0                                 11                               11                            0                                20                             2.326383131160378e-17             111.12865361928247                     119.81030181480729                       171.57303097851934                  9.0903645356667174e-18      -1.4759955853746733e-17  60.000000000000007   60.000000000000007   0                    0                    1.4769231466819342e-17    19                           4                          3                    0.21076016469252246  0.14104321687621113 -1.8947603367488964e-22
              216650.46210944059          2.7443486175760861e-17      -4.9199852845822445e-18        16                             0                                 12                               12                            0                                21                             2.326383131160378e-17             111.12865361928247                     111.12865361928247                       171.57303097851934                  9.0903645356667174e-18      -1.9679941138328978e-17  80                   80                   0                    0                    1.4769231466819342e-17    20                           0                          4                    0.21076016469252246  0.14104321687621113 -1.8947603367488964e-22
              324637.40095457155          2.4747928695125943e-17      -2.6955574806349151e-18        17                             0                                 12                               12                            0                                22                             2.16206322094259e-17             102.34670537996577                     111.12865361928247                       171.57303097851934                  9.3009325848817846e-18      -2.0532330676768849e-17  80                   80                   0                    0                    1.4358694577587112e-17    21                           1                          4                    0.21988873668575273  0.13661705533588037  4.255601278420965e-22
              396330.17446245509          2.4272860999691021e-17      -4.7506769543492407e-19        18                             0                                 12                               12                            0                                23                             2.1352004130225975e-17             100.34697190564661                     111.12865361928247                       171.57303097851934                  9.3567603713777033e-18      -2.07246228937187e-17  80                   80                   0                    0                    1.4288719391806043e-17    22                           2                          4                    0.22194806902971531  0.13560207475210354  3.1198864982612349e-22
              242196.64612049991          2.3986014889218222e-17      -2.8684611047279864e-19        19                             1                                 13                               13                            0                                25                             2.1182887812402065e-17             99.853268199866577                     111.12865361928247                       171.57303097851934                  9.3722039410811065e-18      -2.0825083211693757e-17  80                   80                   0                    0                    1.4256006347428809e-17    23                           3                          4                    0.22302393775374565  0.13506488025436703  6.0704620828973177e-22
              213755.64838789229          2.353092167660882e-17      -4.5509321260940144e-19        20                             1                                 13                               14                            1                                26                             2.0953635249312188e-17             99.421543963367142                     111.12865361928247                       171.57303097851934                  9.4131298983716586e-18      -2.1032172623723385e-17  80                   80                   0                    0                    1.4196329152648359e-17    24                           4                          4                    0.22524173903062222  0.13395129190217234 -6.4319123479397781e-22
              221725.69905253797          1.8272878520677973e-17      -5.2580431559308463e-18        20                             1                                 14                               15                            0                                27                             2.0953635249312188e-17             99.421543963367142                     99.421543963367142                       171.57303097851934                  9.4131298983716586e-18      -2.6290215779654232e-17  100.00000000000001   100.00000000000001   0                    0                    1.4196329152648359e-17    25                           0                          5                    0.22524173903062222  0.13395129190217234 -6.4319123479397781e-22
              318347.56999572186          1.7937048884378693e-17      -3.358296362992826e-19        21                             1                                 14                               15                            0                                28                             2.086649988647583e-17             99.459894200531465                     99.459894200531465                       171.57303097851934                  9.457383000480451e-18      -2.6583480351869664e-17  100.00000000000001   100.00000000000001   0                    0                    1.4196646349292075e-17    26                           1                          5                    0.2277542867706448   0.13316654880024556  6.2378706267064572e-22
              351612.31013305683          1.7935404999262739e-17      -1.6438851159521046e-21        22                             2                                 14                               15                            0                                30                             2.0882775208359288e-17             99.462588577183269                     99.462588577183269                       171.57303097851934                  9.460800424255878e-18      -2.6605457775997425e-17  100.00000000000001   100.00000000000001   0                    0                    1.4197287142644999e-17    27                           2                          5                    0.22794257861546796  0.13310735268207122 -3.3919253819510866e-22
              582772.01088319451          1.6561867111859993e-17      -1.3735378874027481e-18        23                             2                                 14                               16                            1                                31                             2.0391425142777226e-17             97.71746123058611                      99.462588577183269                       171.57303097851934                  9.620158794576051e-18      -2.7681542921938356e-17  100.00000000000001   100.00000000000001   0                    0                    1.4231826096445072e-17    28                           3                          5                    0.23716195101043824  0.1301837791069673   2.7831670408269429e-22
              1075458.5251070969          1.4731665905550489e-17      -1.8302012063095033e-18        24                             2                                 14                               16                            1                                32                             1.9870235708953481e-17             102.22906925908443                     102.22906925908443                       171.57303097851934                  9.9325736254018258e-18      -2.9482296038653113e-17  100.00000000000001   100.00000000000001   0                    0                    1.4411152609848294e-17    29                           4                          5                    0.2525899249370554   0.12511517773061495  1.4106072185736011e-21
# Table End
