# ODT 1.0
# Table Start
# Title: mmArchive Data Table, Sat May 29 00:51:51 EDT 2021
# Columns: {Oxs_CGEvolve::Max mxHxm} {Oxs_CGEvolve::Total energy} {Oxs_CGEvolve::Delta E} {Oxs_CGEvolve::Bracket count} {Oxs_CGEvolve::Line min count} {Oxs_CGEvolve::Conjugate cycle count} {Oxs_CGEvolve::Cycle count} {Oxs_CGEvolve::Cycle sub count} {Oxs_CGEvolve::Energy calc count} Oxs_ExchangePtwise::Energy {Oxs_ExchangePtwise::Max Spin Ang} {Oxs_ExchangePtwise::Stage Max Spin Ang} {Oxs_ExchangePtwise::Run Max Spin Ang} Oxs_UniaxialAnisotropy::Energy Oxs_CubicAnisotropy::Energy Oxs_UZeeman::Energy  Oxs_UZeeman::B       Oxs_UZeeman::Bx      Oxs_UZeeman::By      Oxs_UZeeman::Bz      Oxs_Demag::Energy    Oxs_MinDriver::Iteration {Oxs_MinDriver::Stage iteration} Oxs_MinDriver::Stage Oxs_MinDriver::mx    Oxs_MinDriver::my    Oxs_MinDriver::mz   
# Units:              A/m                         J                          J                         {}                             {}                                {}                               {}                            {}                               {}                             J                             deg                                   deg                                     deg                                 J                             J                       J                 mT                   mT                   mT                   mT                     J                       {}                           {}                         {}                 {}                   {}                   {}           
              18673481.995360266          6.4517535100094996e-15       6.4517535100094996e-15        0                              0                                 1                                1                             0                                1                              6.1697369878636279e-15            179.87623766050618                    179.87623766050618                      179.87623766050618                 7.489498117474321e-17          1.8502288626977654e-18      0                    0                    0                    0                    0                    2.0527131210843096e-16    0                            0                          0                   -0.0032274114815930037  0.0032811999759296009 -0.0042248336375968077
              18673268.485236719          6.4504678487604625e-15      -1.2856612490370567e-18        1                              0                                 1                                1                             0                                2                              6.1684565596869475e-15            179.87985087064126                    179.87985087064126                      179.87985087064126                 7.4894216984202829e-17          1.8502213013774149e-18      0                    0                    0                    0                    0                    2.0526685078793432e-16    1                            1                          0                   -0.0032300872836752868  0.0032818889575465283 -0.0042278235343355527
              18286302.705685191          6.1933501903961489e-15      -2.5711765836431363e-16        2                              0                                 1                                1                             0                                3                              5.9124091254797374e-15            179.72811167373732                    179.87985087064126                      179.87985087064126                 7.4742528755464978e-17          1.8489048527892668e-18      0                    0                    0                    0                    0                    2.0434963130815754e-16    2                            2                          0                   -0.0037574566920627311  0.0034298422852025562 -0.0048152191533962002
              18073686.898052163          5.933016522388327e-15      -2.6033366800782187e-16        3                              0                                 2                                2                             0                                4                              5.6532565701305349e-15            179.10994052018356                    179.87985087064126                      179.87985087064126                 7.4587413292208577e-17          1.8479877204410374e-18      0                    0                    0                    0                    0                    2.0332455124514223e-16    3                            3                          0                   -0.0043498801518532422  0.0036496830748255454 -0.0054662814582411654
              17570235.12418782           5.6754608304388173e-15      -2.5755569194950976e-16        4                              0                                 3                                3                             0                                5                              5.3969712206047743e-15            179.94219833870704                    179.94219833870704                      179.94219833870704                 7.4433384576265056e-17          1.8475915470212102e-18      0                    0                    0                    0                    0                    2.0220863371075615e-16    4                            4                          0                   -0.0049863115195558404  0.0039478383421616458 -0.0061732660327524381
              17558292.118143097          5.6755235789807891e-15       6.2748541971801171e-20        4                              0                                 4                                4                             0                                6                              5.3969712206047743e-15            179.94219833870704                    179.94219833870704                      179.94219833870704                 7.4433384576265056e-17          1.8475915470212102e-18      6.2748541971933772e-20  20                   20                   0                    0                    2.0220863371075615e-16    5                            0                          1                   -0.0049863115195558404  0.0039478383421616458 -0.0061732660327524381
              17652081.756129347          5.4184590122159626e-15      -2.5706456676482645e-16        5                              0                                 4                                4                             0                                7                              5.1412723899465109e-15            179.57945033212198                    179.94219833870704                      179.94219833870704                 7.4280964379364306e-17          1.8477411139816908e-18      6.9766220415151634e-20  20                   20                   0                    0                    2.0098815055569029e-16    6                            1                          1                   -0.0055439711840243287  0.004332298609397549 -0.0069490902961877529
              18571020.081966881          5.1723131557611349e-15      -2.4614585645482776e-16        6                              0                                 5                                5                             0                                8                              4.8965360133129448e-15            179.24935290664038                    179.94219833870704                      179.94219833870704                 7.4139226582717912e-17          1.8483903984410083e-18      7.6706800197029819e-20  20                   20                   0                    0                    1.9971281866683427e-16    7                            2                          1                   -0.0060955042050506222  0.0047873884416525011 -0.0077690622503121583
              18578458.29285042           4.9480746908608862e-15      -2.2423846490024869e-16        7                              0                                 6                                6                             0                                9                              4.6736705297740678e-15            179.47213238009564                    179.94219833870704                      179.94219833870704                 7.4017261959781857e-17          1.8493727488004771e-18      8.3158365481458581e-20  20                   20                   0                    0                    1.9845436801275473e-16    8                            3                          1                   -0.006608177699700144  0.0052789809672796201 -0.008594094962947052
              17751166.889078375          4.7337736505793274e-15      -2.1430104028155882e-16        8                              0                                 7                                7                             0                                10                             4.4607600879819576e-15            179.76998011842954                    179.94219833870704                      179.94219833870704                 7.3910822836880537e-17          1.8506133902534578e-18      8.9390773712028804e-20  20                   20                   0                    0                    1.9716273559652353e-16    9                            4                          1                   -0.0071034358838435617  0.0058164998186802062 -0.0094607693081041593
              17742127.691961601          4.7338630413530395e-15       8.9390773712092589e-20        8                              0                                 8                                8                             0                                11                             4.4607600879819576e-15            179.76998011842954                    179.76998011842954                      179.94219833870704                 7.3910822836880537e-17          1.8506133902534578e-18      1.7878154742405761e-19  40                   40                   0                    0                    1.9716273559652353e-16    10                           0                          2                   -0.0071034358838435617  0.0058164998186802062 -0.0094607693081041593
              18319132.718049131          4.5201964261159442e-15      -2.136666152370953e-16        9                              0                                 8                                8                             0                                12                             4.248552182517646e-15            179.23690857889974                    179.76998011842954                      179.94219833870704                 7.381818816590127e-17          1.8520775011922001e-18      1.8833260053867095e-19  40                   40                   0                    0                    1.9578564533066563e-16    11                           1                          2                   -0.0074829229975886761  0.0064171336097073794 -0.010409880049436066
              18035988.153922889          4.3238701904880459e-15      -1.9632623562789824e-16        10                             0                                 9                                9                             0                                13                             4.0536346296778753e-15            179.62684873277226                    179.76998011842954                      179.94219833870704                 7.3748410158205579e-17          1.8535442671257255e-18      1.9687453522684576e-19  40                   40                   0                    0                    1.9443673184961254e-16    12                           2                          2                   -0.0078223153244573254  0.0070294736621244218 -0.011369452918599421
              17216227.306312963          4.1348659639337291e-15      -1.8900422655431684e-16        11                             0                                 10                               10                            0                                14                             3.8660485139016485e-15            179.50731227930439                    179.76998011842954                      179.94219833870704                 7.3697375481602811e-17          1.8549658218829069e-18      2.0484237199322626e-19  40                   40                   0                    0                    1.9306026635660114e-16    13                           3                          2                   -0.0081388973119074295  0.0076748619436577577 -0.012378231175640639
              17777417.855388273          3.9477665994764351e-15      -1.8709936445729401e-16        12                             0                                 11                               11                            0                                15                             3.6804143629939506e-15            178.79637214868882                    179.76998011842954                      179.94219833870704                 7.3663838733150618e-17          1.8562488607431534e-18      2.1244810037885812e-19  40                   40                   0                    0                    1.9161970078821157e-16    14                           4                          2                   -0.0084410918320673798  0.0083709720991762878 -0.013463571178816334
              17785442.343224466          3.9478728235266243e-15       1.0622405018918979e-19        12                             0                                 12                               12                            0                                16                             3.6804143629939506e-15            178.79637214868882                    178.79637214868882                      179.94219833870704                 7.3663838733150618e-17          1.8562488607431534e-18      3.1867215056828716e-19  60.000000000000014   60.000000000000014   0                    0                    1.9161970078821157e-16    15                           0                          3                   -0.0084410918320673798  0.0083709720991762878 -0.013463571178816334
              17491529.177645713          3.7771547258583526e-15      -1.7071809766827161e-16        13                             0                                 12                               12                            0                                17                             3.5110913856373095e-15            178.07996383464845                    178.79637214868882                      179.94219833870704                 7.36485084675341e-17          1.8571654033046753e-18      3.2426952491609999e-19  60.000000000000014   60.000000000000014   0                    0                    1.9023339682528874e-16    16                           1                          3                   -0.00858935690889975  0.0090622171158892279 -0.014536101948018796
              16375569.704309216          3.613445370917788e-15      -1.6370935494056463e-16        14                             0                                 13                               13                            0                                18                             3.3487736656101629e-15            178.36337510961076                    178.79637214868882                      179.94219833870704                 7.3647491649202464e-17          1.8576983699058729e-18      3.2882054723007667e-19  60.000000000000014   60.000000000000014   0                    0                    1.88837694741287e-16    17                           2                          3                   -0.0087099058718811788  0.0097800356230385924 -0.015637388222593154
              16794814.581553835          3.4489228231747186e-15      -1.6452254774306944e-16        15                             0                                 14                               14                            0                                19                             3.1857048424813639e-15            178.62480010829086                    178.79637214868882                      179.94219833870704                 7.3659890025741991e-17          1.8578031282133629e-18      3.325725868345572e-19  60.000000000000014   60.000000000000014   0                    0                    1.8736771495256483e-16    18                           3                          3                   -0.0088092911203332038  0.010559652687901594 -0.016813608955519196
              16895512.060309283          3.2983406129270693e-15      -1.5058221024764924e-16        16                             0                                 15                               15                            0                                20                             3.0365044180625272e-15            178.69719134336788                    178.79637214868882                      179.94219833870704                 7.3683719908453744e-17          1.8574767599785139e-18      3.3529540591106728e-19  60.000000000000014   60.000000000000014   0                    0                    1.8595970279019883e-16    19                           4                          3                   -0.008881414039847645  0.011330382810138546 -0.017953122585131015
              16891446.491404101          3.2984523780623728e-15       1.1176513530344395e-19        16                             0                                 16                               16                            0                                21                             3.0365044180625272e-15            178.69719134336788                    178.69719134336788                      179.94219833870704                 7.3683719908453744e-17          1.8574767599785139e-18      4.4706054121475631e-19  80                   80                   0                    0                    1.8595970279019883e-16    20                           0                          4                   -0.008881414039847645  0.011330382810138546 -0.017953122585131015
              16312028.383659625          3.1576291514333797e-15      -1.4082322662899304e-16        17                             0                                 16                               16                            0                                22                             2.8970237981625899e-15            179.46788233200209                    179.46788233200209                      179.94219833870704                 7.371760413558501e-17          1.8568269211065666e-18      4.4341021311578329e-19  80                   80                   0                    0                    1.8458751200098241e-16    21                           1                          4                   -0.0088088957291504455  0.012101282004907152 -0.019070835266843722
              16791498.34963515           3.0204242396936612e-15      -1.3720491173971858e-16        18                             0                                 17                               17                            0                                23                             2.7611688688659182e-15            177.59394668315346                    179.46788233200209                      179.94219833870704                 7.3762999242621601e-17          1.8559303689155908e-18      4.3845523004864546e-19  80                   80                   0                    0                    1.831979859861572e-16    22                           2                          4                   -0.0087104588238040084  0.01289845267618645 -0.020205088797518755
              16931987.430004403          2.8950469191219128e-15      -1.2537732057174841e-16        19                             0                                 18                               18                            0                                24                             2.6370617538727738e-15            179.08775749062531                    179.46788233200209                      179.94219833870704                 7.3816507510953651e-17          1.8549560097137759e-18      4.3258264648251008e-19  80                   80                   0                    0                    1.8188111908198886e-16    23                           3                          4                   -0.0085937926425464703  0.013667080450746159 -0.021280568363195421
              16800463.801993463          2.777841557582964e-15      -1.1720536153894874e-16        20                             0                                 19                               19                            0                                25                             2.5210758234526043e-15            178.92621835765107                    179.46788233200209                      179.94219833870704                 7.3877568918352517e-17          1.8540023494580271e-18      4.2576902871686068e-19  80                   80                   0                    0                    1.806083938338326e-16    24                           4                          4                   -0.0084584316457526811  0.014418758077127352 -0.022317399005604373
              16808504.85962997           2.7779479998401433e-15       1.0644225717931009e-19        20                             0                                 20                               20                            0                                26                             2.5210758234526043e-15            178.92621835765107                    178.92621835765107                      179.94219833870704                 7.3877568918352517e-17          1.8540023494580271e-18      5.3221128589607592e-19  100                  100                  0                    0                    1.806083938338326e-16    25                           0                          5                   -0.0084584316457526811  0.014418758077127352 -0.022317399005604373
              15944697.596167104          2.6665836043695339e-15      -1.1136439547060947e-16        21                             0                                 20                               20                            0                                27                             2.4109101128588141e-15            179.54846969878565                    179.54846969878565                      179.94219833870704                 7.3945291724434823e-17          1.8531712983748875e-18      5.1455013376947262e-19  100                  100                  0                    0                    1.7936047835414041e-16    26                           1                          5                   -0.0081777430320255397  0.01516131435765896 -0.023328775412352475
              14405456.632409226          2.5559861845354381e-15      -1.1059741983409578e-16        22                             0                                 21                               21                            0                                28                             2.3015355531034351e-15            177.811172972126                      179.54846969878565                      179.94219833870704                 7.4021830426083567e-17          1.8525570993060642e-18      4.9432251062971035e-19  100                  100                  0                    0                    1.7808192139598337e-16    27                           2                          5                   -0.0078562655056787344  0.015926035695786843 -0.0243557689769381 
              14055947.999559304          2.4411755025778976e-15      -1.1481068195754045e-16        23                             0                                 22                               22                            0                                29                             2.1880320655089878e-15            178.7847663323285                     179.54846969878565                      179.94219833870704                 7.4110682269367687e-17          1.8523415359361995e-18      4.7002272014455936e-19  100                  100                  0                    0                    1.7671039054346106e-16    28                           3                          5                   -0.0074700690414705425  0.016749345558559666 -0.025442740706917807
              14546574.022803636          2.3313992486058415e-15      -1.0977625397205613e-16        24                             0                                 23                               23                            0                                30                             2.0795462843769008e-15            178.62020913313347                    179.54846969878565                      179.94219833870704                 7.4204615704995411e-17          1.8527638307030782e-18      4.4297104346741722e-19  100                  100                  0                    0                    1.7535261364977473e-16    29                           4                          5                   -0.0070401368620141101  0.017569015397304891 -0.026500750153498984
# Table End
