# ODT 1.0
# Table Start
# Title: mmArchive Data Table, Wed Aug 17 23:55:36 EDT 2011
# Columns: {Oxs_CGEvolve::Max mxHxm} {Oxs_CGEvolve::Total energy} {Oxs_CGEvolve::Delta E} {Oxs_CGEvolve::Bracket count} {Oxs_CGEvolve::Line min count} {Oxs_CGEvolve::Conjugate cycle count} {Oxs_CGEvolve::Cycle count} {Oxs_CGEvolve::Cycle sub count} {Oxs_CGEvolve::Energy calc count} Oxs_UniformExchange::Energy {Oxs_UniformExchange::Max Spin Ang} {Oxs_UniformExchange::Stage Max Spin Ang} {Oxs_UniformExchange::Run Max Spin Ang} Oxs_UniaxialAnisotropy::Energy Oxs_UZeeman::Energy  Oxs_UZeeman::B       Oxs_UZeeman::Bx      Oxs_UZeeman::By      Oxs_UZeeman::Bz      Oxs_Demag::Energy    Oxs_MinDriver::Iteration {Oxs_MinDriver::Stage iteration} Oxs_MinDriver::Stage Oxs_MinDriver::mx    Oxs_MinDriver::my    Oxs_MinDriver::mz   
# Units:              A/m                         J                          J                         {}                             {}                                {}                               {}                            {}                               {}                              J                              deg                                    deg                                      deg                                 J                         J                 mT                   mT                   mT                   mT                     J                       {}                           {}                         {}                 {}                   {}                   {}           
              4997955.3919447558          1.6743124574236432e-16       1.6743124574236432e-16        0                              0                                 1                                1                             1                                1                              1.4008369314157752e-16             171.57303097851934                     171.57303097851934                       171.57303097851934                  7.9399999999999994e-18       0                    0                    0                    0                    0                    1.9407552600786796e-17    0                            0                          0                    0.20307476571474808  0.15134551624344367  0                  
              4993770.2475362951          1.6722173113708819e-16      -2.0951460527613651e-19        1                              0                                 1                                1                             1                                2                              1.3987957548360412e-16             171.54649675979937                     171.57303097851934                       171.57303097851934                  7.9400007390929951e-18       0                    0                    0                    0                    0                    1.9402154914391072e-17    1                            1                          0                    0.20307456326659132  0.15134653688725611  4.1757017461484215e-23
              4964211.2361525688          1.6576190256510598e-16      -1.4598285719822061e-18        2                              0                                 1                                1                             1                                3                              1.3845721856115009e-16             171.36073987058276                     171.57303097851934                       171.57303097851934                  7.9400473007404315e-18       0                    0                    0                    0                    0                    1.936463670321546e-17    2                            2                          0                    0.20307310086212732  0.15135357427898816 -1.2068634112786144e-21
              4973428.9658164298          1.610213640985805e-16      -4.7405384665254771e-18        2                              0                                 2                                2                             2                                4                              1.3845721856115009e-16             171.36073987058276                     171.36073987058276                       171.57303097851934                  7.9400473007404315e-18      -4.7405384665254887e-18  20                   20                   0                    0                    1.936463670321546e-17    3                            0                          1                    0.20307310086212732  0.15135357427898816 -1.2068634112786144e-21
              4969211.9741769303          1.6081465910378064e-16      -2.0670499479986251e-19        3                              0                                 2                                2                             0                                5                              1.382557893412493e-16             171.33400652495322                     171.36073987058276                       171.57303097851934                  7.9400598171084256e-18      -4.7405563985942476e-18  20                   20                   0                    0                    1.9359366344017156e-17    4                            1                          1                    0.20307386902819699  0.15135455440817716 -3.4531816900267037e-21
              4940258.2101693209          1.5937442874825694e-16      -1.4402303555236974e-18        4                              0                                 2                                2                             0                                6                              1.3685218546743287e-16             171.14685672257409                     171.36073987058276                       171.57303097851934                  7.9401885236540749e-18      -4.740680895690577e-18  20                   20                   0                    0                    1.9322735652860585e-17    5                            2                          1                    0.2030792021800274   0.15136130901488076 -1.226648057365149e-21
              4949566.206276563           1.5463374785256637e-16      -4.740680895690574e-18        4                              0                                 3                                3                             1                                7                              1.3685218546743287e-16             171.14685672257409                     171.14685672257409                       171.57303097851934                  7.9401885236540749e-18      -9.4813617913811541e-18  40                   40                   0                    0                    1.9322735652860585e-17    6                            0                          2                    0.2030792021800274   0.15136130901488076 -1.226648057365149e-21
              4945478.6544185337          1.5442980371494969e-16      -2.0394413761667959e-19        5                              0                                 3                                3                             0                                8                              1.3665344202299579e-16             171.11992270408933                     171.14685672257409                       171.57303097851934                  7.9402126885956802e-18      -9.4814434375272443e-18  40                   40                   0                    0                    1.9317592440885464e-17    7                            1                          2                    0.20308095094086884  0.1513622484411152  -4.2582645961633832e-21
              4925737.5697362171          1.5300882883708335e-16      -1.4209748778663393e-18        6                              0                                 3                                3                             0                                9                              1.3526857117852478e-16             170.9313690997343                      171.14685672257409                       171.57303097851934                  7.9404226369832282e-18      -9.4820129655378078e-18  40                   40                   0                    0                    1.9281847987113146e-17    8                            2                          2                    0.20309314953602295  0.15136871897624576  5.4240368194161179e-21
              4938963.529492314           1.4826782235431444e-16      -4.7410064827689116e-18        6                              0                                 4                                4                             1                                10                             1.3526857117852478e-16             170.9313690997343                      170.9313690997343                        171.57303097851934                  7.9404226369832282e-18      -1.4223019448306716e-17  60.000000000000014   60.000000000000014   0                    0                    1.9281847987113146e-17    9                            0                          3                    0.20309314953602295  0.15136871897624576  5.4240368194161179e-21
              4936382.8313897904          1.4806710146909464e-16      -2.0072088521979822e-19        7                              0                                 4                                4                             0                                11                             1.3507300953816256e-16             170.90430206115892                     170.9313690997343                        171.57303097851934                  7.9404582269722359e-18      -1.4223210782682976e-17  60.000000000000014   60.000000000000014   0                    0                    1.927684448664281e-17    10                           1                          3                    0.2030958816352938   0.15136961526670323 -6.6202469597250599e-21
              4918009.8327866429          1.4666858392227449e-16      -1.3985175468201557e-18        8                              0                                 4                                4                             0                                12                             1.3371031060875928e-16             170.71481823524124                     170.9313690997343                        171.57303097851934                  7.9407476446284398e-18      -1.4224547236686384e-17  60.000000000000014   60.000000000000014   0                    0                    1.924207290557314e-17    11                           2                          3                    0.20311496511147054  0.15137578526335554  9.283564702143187e-21
              4931297.2740829671          1.4192706817671235e-16      -4.7415157455621322e-18        8                              0                                 5                                5                             1                                13                             1.3371031060875928e-16             170.71481823524124                     170.71481823524124                       171.57303097851934                  7.9407476446284398e-18      -1.896606298224851e-17  80                   80                   0                    0                    1.924207290557314e-17    12                           0                          4                    0.20311496511147054  0.15137578526335554  9.283564702143187e-21
              4928658.1613213448          1.4172958831337063e-16      -1.9747986334172389e-19        9                              0                                 5                                5                             0                                14                             1.3351799383116848e-16             170.68763024748247                     170.71481823524124                       171.57303097851934                  7.9407944187543115e-18      -1.8966410163159801e-17  80                   80                   0                    0                    1.9237210226607675e-17    13                           1                          4                    0.20311868320724438  0.15137663824673503 -1.8688881072511203e-20
              4909877.3828102993          1.4035364627564798e-16      -1.3759420377226537e-18        10                             0                                 5                                5                             0                                15                             1.3217790231788135e-16             170.49730064340596                     170.71481823524124                       171.57303097851934                  7.9411615862421893e-18      -1.8968836725509906e-17  80                   80                   0                    0                    1.9203419097034325e-17    14                           2                          4                    0.20314467020979587  0.15138250661344316 -1.773921806035754e-20
              4923225.6580658276          1.3561143709427048e-16      -4.7422091813774935e-18        10                             0                                 6                                6                             1                                16                             1.3217790231788135e-16             170.49730064340596                     170.49730064340596                       171.57303097851934                  7.9411615862421893e-18      -2.3711045906887384e-17  100                  100                  0                    0                    1.9203419097034325e-17    15                           0                          5                    0.20314467020979587  0.15138250661344316 -1.773921806035754e-20
              4920528.5179221034          1.354170774426684e-16      -1.9435965160208394e-19        11                             0                                 6                                6                             0                                17                             1.3198875867894378e-16             170.46998544169259                     170.49730064340596                       171.57303097851934                  7.9412193240713389e-18      -2.371159544723421e-17  100                  100                  0                    0                    1.91986948868875e-17    16                           1                          5                    0.20314937840330918  0.15138331678911113  2.9890034549195443e-21
              4901342.7201236049          1.3406286805320333e-16      -1.354209389465065e-18        12                             0                                 6                                6                             0                                18                             1.3067077521293194e-16             170.27876614009622                     170.49730064340596                       171.57303097851934                  7.9416627207089883e-18      -2.3715437778249356e-17  100                  100                  0                    0                    1.9165867897811742e-17    17                           2                          5                    0.2031822976203663   0.15138888698323133  2.2944101876968965e-20
# Table End
