# ODT 1.0
# Table Start
# Title: mmArchive Data Table, Wed Jun 16 18:44:28 EDT 2010
# Columns: {Oxs_EulerEvolve:evolver:Total energy} {Oxs_EulerEvolve:evolver:Energy calc count} {Oxs_EulerEvolve:evolver:Max dm/dt} Oxs_EulerEvolve:evolver:dE/dt {Oxs_EulerEvolve:evolver:Delta E} Oxs_UniformExchange:NiFe:Energy {Oxs_UniformExchange:NiFe:Max Spin Ang} {Oxs_UniformExchange:NiFe:Stage Max Spin Ang} {Oxs_UniformExchange:NiFe:Run Max Spin Ang} Oxs_UZeeman::Energy  Oxs_UZeeman::B       Oxs_UZeeman::Bx      Oxs_UZeeman::By      Oxs_UZeeman::Bz      Oxs_Demag::Energy    Oxs_TimeDriver::Iteration {Oxs_TimeDriver::Stage iteration} Oxs_TimeDriver::Stage Oxs_TimeDriver::mx   Oxs_TimeDriver::my   Oxs_TimeDriver::mz   {Oxs_TimeDriver::Last time step} {Oxs_TimeDriver::Simulation time}
# Units:                     J                                        {}                                    deg/ns                             J/s                              J                                J                                  deg                                        deg                                          deg                              J                 mT                   mT                   mT                   mT                     J                       {}                            {}                          {}                   {}                   {}                   {}                          s                                 s                
                     4.7180877983009789e-16                      1                                       4627.7613284375275              -2.1901084531843208e-05             0                                3.8329264373502369e-18                 11.91421352468034                          11.91421352468034                            11.91421352468034                0                    0                    0                    0                    0                    4.679758533927476e-16    0                             0                           0                     0.68496446966341096  0.56845676606882456  0.45189579632750815        0                                0                         
                     4.7176145715748254e-16                      2                                       4626.8930690107636              -2.1897829781504183e-05            -4.7322672615351285e-20              3.8307499527005382e-18                 11.912001697678031                         11.91421352468034                            11.91421352468034                0                    0                    0                    0                    0                    4.6793070720478198e-16    1                             1                           0                     0.68501837407792021  0.56841752012042512  0.45186438395196377        2.1608720265131527e-15              2.1608720265131527e-15       
                     4.7170231346891242e-16                      3                                       4625.8057898216457              -2.1893763318694651e-05            -5.9143688570047606e-20              3.8280333778338068e-18                 11.909236009332206                         11.91421352468034                            11.91421352468034                0                    0                    0                    0                    0                    4.6787428009107859e-16    2                             2                           0                     0.68508574518674226  0.56836845863316221  0.45182511898066341        2.7010900331414408e-15              4.8619620596545936e-15       
                     7.646576182426499e-17                      4                                       5201.2620949304674              -2.9798127588919893e-05             0                                3.8280333778338068e-18                 11.909236009332206                         11.909236009332206                           11.91421352468034               -3.9523655164464746e-16  100.00000000000001   100.00000000000001   0                    0                    4.6787428009107859e-16    3                             0                           1                     0.68508574518674226  0.56836845863316221  0.45182511898066341        0                                4.8619620596545936e-15       
                    -3.1877078982038249e-16                      5                                       5796.3819094277651              -4.2000016362836363e-05             0                                3.8280333778338068e-18                 11.909236009332206                         11.909236009332206                           11.91421352468034               -7.9047310328929491e-16  200.00000000000003   200.00000000000003   0                    0                    4.6787428009107859e-16    4                             0                           2                     0.68508574518674226  0.56836845863316221  0.45182511898066341        0                                4.8619620596545936e-15       
                    -3.1891258664378365e-16                      6                                       5794.1181608796251              -4.1996166544365879e-05            -1.4179682340117046e-19              3.8243877775215686e-18                 11.905391736320686                         11.909236009332206                           11.91421352468034               -7.9059926942998726e-16  200.00000000000003   200.00000000000003   0                    0                    4.6786229500868206e-16    5                             1                           2                     0.68519509062070305  0.56824571999170992  0.45181539328600379        3.3763625414268011e-15              8.2383246010813943e-15       
                    -3.190898131739439e-16                      7                                       5791.2826042741099              -4.1991357128550106e-05            -1.772265301602736e-19              3.8198413582005275e-18                 11.900584570051109                         11.909236009332206                           11.91421352468034               -7.9075694230237773e-16  200.00000000000003   200.00000000000003   0                    0                    4.6784728777023327e-16    6                             2                           2                     0.6853317422497438   0.56809227706633358  0.45180321726285744        4.2204531767835013e-15              1.2458777777864896e-14       
                    -7.1446828432513281e-16                      8                                       6399.7076548208161              -5.8485494362949272e-05             0                                3.8198413582005275e-18                 11.900584570051109                         11.900584570051109                           11.91421352468034               -1.1861354134535666e-15  300                  300                  0                    0                    4.6784728777023327e-16    7                             0                           3                     0.6853317422497438   0.56809227706633358  0.45180321726285744        0                                1.2458777777864896e-14       
                    -7.1477678118138068e-16                      9                                       6395.5649068487974              -5.8479746964968496e-05            -3.084968562479522e-19              3.8139753201919729e-18                 11.894271626418                            11.900584570051109                           11.91421352468034               -1.1864649383143627e-15  300                  300                  0                    0                    4.6787418181279002e-16    8                             1                           3                     0.68552213690823094  0.56785246829871128  0.45181868560062027        5.2755664709793768e-15              1.7734344248844274e-14       
                    -7.15162349651856e-16                      10                                      6390.3713762977004              -5.8472563991193298e-05            -3.8556847047529391e-19              3.8066694107819796e-18                 11.886376456273164                         11.900584570051109                           11.91421352468034               -1.1868766931759659e-15  300                  300                  0                    0                    4.679076741133279e-16    9                             2                           3                     0.68576004286186965  0.56755264112022807  0.45183793201338507        6.5944580887242208e-15              2.4328802337568494e-14       
                    -1.1107879140438446e-15                      11                                      7008.1260271141509              -7.924963516929841e-05             0                                3.8066694107819796e-18                 11.886376456273164                         11.886376456273164                           11.91421352468034               -1.5825022575679546e-15  400.00000000000006   400.00000000000006   0                    0                    4.679076741133279e-16    10                            0                           4                     0.68576004286186965  0.56755264112022807  0.45183793201338507        0                                2.4328802337568494e-14       
                    -1.1114409641663202e-15                      12                                      7000.7512891173938              -7.9238965846001731e-05            -6.5305012247556344e-19              3.7972682927657893e-18                 11.876031298068821                         11.886376456273164                           11.91421352468034               -1.5832588594806846e-15  400.00000000000006   400.00000000000006   0                    0                    4.680206270215987e-16    11                            1                           4                     0.68608790802453967  0.56710278483228682  0.45190976276581885        8.2430726109052766e-15              3.2571874948473768e-14       
                    -1.1122571014376909e-15                      13                                      6991.4948910015219              -7.9225612575110064e-05            -8.1613727137062764e-19              3.7855836606412848e-18                 11.863091235355046                         11.886376456273164                           11.91421352468034               -1.584204023264712e-15  400.00000000000006   400.00000000000006   0                    0                    4.6816133816637985e-16    12                            2                           4                     0.68649748441152203  0.56654024798235003  0.45199919951271744        1.0303840763631596e-14              4.2875715712105362e-14       
                    -1.5083081072538689e-15                      14                                      7615.5305595125474              -0.00010426699852547462             0                                3.7855836606412848e-18                 11.863091235355046                         11.863091235355046                           11.91421352468034               -1.9802550290808899e-15  500.00000000000006   500.00000000000006   0                    0                    4.6816133816637985e-16    13                            0                           5                     0.68649748441152203  0.56654024798235003  0.45199919951271744        0                                4.2875715712105362e-14       
                    -1.5096501721488011e-15                      15                                      7602.6106050640556              -0.00010424274588342758            -1.3420648949322931e-18              3.7706006295346587e-18                 11.84616972623861                          11.863091235355046                           11.91421352468034               -1.9818683222726877e-15  500.00000000000006   500.00000000000006   0                    0                    4.6844754949435189e-16    14                            1                           5                     0.68705676677744099  0.56571956219403974  0.45218505716284996        1.2879800954539494e-14              5.5755516666644856e-14       
                    -1.5113270912766398e-15                      16                                      7586.366908899412               -0.00010421232683400739            -1.6769191278387079e-18              3.7520380950510712e-18                 11.824999551319776                         11.863091235355046                           11.91421352468034               -1.9838827879736006e-15  500.00000000000006   500.00000000000006   0                    0                    4.6880365860190959e-16    15                            2                           5                     0.68775512411818807  0.5646930196115002   0.45241611991876507        1.6099751193174368e-14              7.185526785981923e-14       
                    -1.9081036488713599e-15                      17                                      8214.0534592631302              -0.0001334817149580162             0                                3.7520380950510712e-18                 11.824999551319776                         11.824999551319776                           11.91421352468034               -2.3806593455683207e-15  600                  600                  0                    0                    4.6880365860190959e-16    16                            0                           6                     0.68775512411818807  0.5646930196115002   0.45241611991876507        0                                7.185526785981923e-14       
                    -1.910786544254432e-15                      18                                      8191.6208651728739              -0.00013342158161970354            -2.6828953830722067e-18              3.7283498296025184e-18                 11.797366213996627                         11.824999551319776                           11.91421352468034               -2.3839338193552641e-15  600                  600                  0                    0                    4.6941892527122935e-16    17                            1                           6                     0.68870109571633098  0.56322555366357085  0.45281884138520545        2.012468899146796e-14              9.197995685128719e-14       
                    -1.9141376005519396e-15                      19                                      8163.3532706158248              -0.00013334597364322986            -3.3510562975075749e-18              3.6991494673230389e-18                 11.76278661018114                          11.824999551319776                           11.91421352468034               -2.3880193818013672e-15  600                  600                  0                    0                    4.7018263178210463e-16    18                            2                           6                     0.68988138491328932  0.5613891183625227   0.45331801355492995        2.515586123933495e-14              1.1713581809062215e-13       
                    -2.3121408308521678e-15                      20                                      8792.0475890753642              -0.00016677398603230314             0                                3.6991494673230389e-18                 11.76278661018114                          11.76278661018114                            11.91421352468034               -2.7860226121015954e-15  700                  700                  0                    0                    4.7018263178210463e-16    19                            0                           7                     0.68988138491328932  0.5613891183625227   0.45331801355492995        0                                1.1713581809062215e-13       
                    -2.3173726477468937e-15                      21                                      8753.265430670348               -0.00016662460392826662            -5.2318168947260526e-18              3.6621416188798421e-18                 11.717726200091244                         11.76278661018114                            11.91421352468034               -2.792431256255658e-15  700                  700                  0                    0                    4.713964668898845e-16    20                            1                           7                     0.6914683082516776   0.55880362239107906  0.45411438534156556        3.1444826549168686e-14              1.4858064463979083e-13       
# Table End
