# ODT 1.0
# Table Start
# Title: mmArchive Data Table, Wed Jun 11 15:39:00 EDT 2014
# Columns: {Oxs_EulerEvolve:evolver:Total energy} {Oxs_EulerEvolve:evolver:Energy calc count} {Oxs_EulerEvolve:evolver:Max dm/dt} Oxs_EulerEvolve:evolver:dE/dt {Oxs_EulerEvolve:evolver:Delta E} Oxs_UniformExchange:NiFe:Energy {Oxs_UniformExchange:NiFe:Max Spin Ang} {Oxs_UniformExchange:NiFe:Stage Max Spin Ang} {Oxs_UniformExchange:NiFe:Run Max Spin Ang} Oxs_UZeeman::Energy  Oxs_UZeeman::B       Oxs_UZeeman::Bx      Oxs_UZeeman::By      Oxs_UZeeman::Bz      Oxs_Demag::Energy    Oxs_TimeDriver::Iteration {Oxs_TimeDriver::Stage iteration} Oxs_TimeDriver::Stage Oxs_TimeDriver::mx   Oxs_TimeDriver::my   Oxs_TimeDriver::mz   {Oxs_TimeDriver::Last time step} {Oxs_TimeDriver::Simulation time}
# Units:                     J                                        {}                                    deg/ns                             J/s                              J                                J                                  deg                                        deg                                          deg                              J                 mT                   mT                   mT                   mT                     J                       {}                            {}                          {}                   {}                   {}                   {}                          s                                 s                
                     4.5880582214546077e-17                      1                                       1203.3713743021094              -1.5287227788617407e-07             0                                0                                   0                                          0                                            0                                0                    0                    0                    0                    0                    4.5880582214546077e-17    0                             0                           0                     0                    1                    0                          0                                0                         
                     4.5879313353585284e-17                      2                                       1202.7553933738602              -1.526956962487468e-07            -1.2688609607909662e-21              1.4271443471195281e-24                 0.0099687609825990075                        0.0099687609825990075                          0.0099687609825990075              0                    0                    0                    0                    0                    4.5879311926440935e-17    1                             1                           0                    -1.4055414642314802e-07  0.99999999947796936 -2.8110829284629603e-07        8.3099866039272058e-15              8.3099866039272058e-15       
                     4.5877729578334946e-17                      3                                       1201.9854009748242              -1.5247535470182528e-07            -1.5837752503414641e-21              7.2171517474773711e-24                 0.02242247822636648                        0.02242247822636648                          0.02242247822636648              0                    0                    0                    0                    0                    4.5877722361183194e-17    2                             2                           0                    -3.1651188700498652e-07  0.99999999735891709 -6.323278313160675e-07        1.0387483254909006e-14              1.8697469858836212e-14       
                     4.5875753446859101e-17                      4                                       1201.0228868705456              -1.5220052836303748e-07            -1.9761314758435715e-21              2.0693623792674399e-23                 0.037978318748500231                        0.037978318748500231                          0.037978318748500231              0                    0                    0                    0                    0                    4.5875732753235306e-17    3                             3                           0                    -5.3687309670630956e-07  0.99999999242316329 -1.0710931985867676e-06        1.2984354068636259e-14              3.1681823927472473e-14       
                     4.5873288873238987e-17                      5                                       1199.8197108085035              -1.5185793048871421e-07            -2.4645736201145023e-21              4.7247578935274134e-23                 0.057405448027735881                        0.057405448027735881                          0.057405448027735881              0                    0                    0                    0                    0                    4.5873241625660052e-17    4                             4                           0                    -8.1297130557232627e-07  0.99999998268888801 -1.6191452300098076e-06        1.6230442585795322e-14              4.7912266513267795e-14       
                     4.5873578132637828e-17                      6                                       1939.9838009614659              -2.6439239638134117e-06             0                                4.7247578935274134e-23                 0.057405448027735881                        0.057405448027735881                          0.057405448027735881              2.8925939884468613e-22  100.00000000000001   100.00000000000001   0                    0                    4.5873241625660052e-17    5                             0                           1                    -8.1297130557232627e-07  0.99999998268888801 -1.6191452300098076e-06        0                                4.7912266513267795e-14       
                     4.5873867392036675e-17                      7                                       2841.6497256014372              -1.0144183725720194e-05             0                                4.7247578935274134e-23                 0.057405448027735881                        0.057405448027735881                          0.057405448027735881              5.7851879768937225e-22  200.00000000000003   200.00000000000003   0                    0                    4.5873241625660052e-17    6                             0                           2                    -8.1297130557232627e-07  0.99999998268888801 -1.6191452300098076e-06        0                                4.7912266513267795e-14       
                     4.5668278167823567e-17                      8                                       2840.3198639505849              -1.0143051402082868e-05            -2.0558922421310509e-19              9.5531371150539378e-23                 0.081661710589737826                        0.081661710589737826                          0.081661710589737826             -2.0238812764813482e-19  200.00000000000003   200.00000000000003   0                    0                    4.5870570764100554e-17    7                             1                           2                     0.00028440863291496365  0.99999976274277291  0.00056883189612973639        2.0288053232244154e-14              6.820031974551194e-14       
                     4.5411387705350432e-17                      9                                       2838.6516589153453              -1.0141664119799447e-05            -2.5689046247314017e-19              1.7931448758029341e-22                 0.11194757261468291                        0.11194757261468291                          0.11194757261468291             -4.5659824265998788e-19  200.00000000000003   200.00000000000003   0                    0                    4.5867806633522837e-17    8                             2                           2                     0.00064164080914900828  0.9999989071946036   0.001281510469196695        2.5360066540305191e-14              9.3560386285817143e-14       
                     4.5090423624777595e-17                      10                                      2836.5573800622224              -1.0139973878903677e-05            -3.2096408057283712e-19              3.2035497234005902e-22                 0.14975088689229538                        0.14975088689229538                          0.14975088689229538             -7.7514433690115564e-19  200.00000000000003   200.00000000000003   0                    0                    4.586524760670641e-17    9                             3                           2                     0.0010892819837392542  0.99999693071918094  0.0021717560979903146        3.1700083175381492e-14              1.2526046946119863e-13       
                     4.4689449171344402e-17                      11                                      2833.9257486877136              -1.0137929458180431e-05            -4.0097445343319328e-19              5.5281909074970122e-22                 0.19692032328872999                        0.19692032328872999                          0.19692032328872999             -1.1745498757259611e-18  200.00000000000003   200.00000000000003   0                    0                    4.586344622797961e-17    10                            4                           2                     0.0016505519781596716  0.99999304320425142  0.003283620290603236        3.962510396922686e-14              1.6488557343042548e-13       
                     4.4102174233481418e-17                      12                                      3735.5784787393682              -2.2644262559335237e-05             0                                5.5281909074970122e-22                 0.19692032328872999                        0.19692032328872999                          0.19692032328872999             -1.7618248135889416e-18  300                  300                  0                    0                    4.586344622797961e-17    11                            0                           3                     0.0016505519781596716  0.99999304320425142  0.003283620290603236        0                                1.6488557343042548e-13       
                     4.2983409568251367e-17                      13                                      3732.2326061351141              -2.2639760279996397e-05            -1.1187646652300518e-18              9.3003981250794563e-22                 0.25574852944305604                        0.25574852944305604                          0.25574852944305604             -2.885661003008159e-18  300                  300                  0                    0                    4.5868140531447015e-17    12                            1                           3                     0.0027034092380109924  0.99998158862354869  0.0053691460341081867        4.9531379961533579e-14              2.1441695339195905e-13       
                     4.1586113027343185e-17                      14                                      3728.0126417622287              -2.2634454591017106e-05            -1.3972965409081848e-18              1.5347874660369897e-21                 0.32909940796629772                        0.32909940796629772                          0.32909940796629772             -4.2971612185831721e-18  300                  300                  0                    0                    4.5881739458460319e-17    13                            2                           3                     0.0040257623204632102  0.99995954720749747  0.0079725575577311303        6.1914224951916973e-14              2.7633117834387603e-13       
                     3.9841274449535525e-17                      15                                      3722.6812336967932              -2.2628324931796511e-05            -1.7448385778076601e-18              2.4947237310955772e-21                 0.42049581438357575                        0.42049581438357575                          0.42049581438357575             -6.0719865799807477e-18  300                  300                  0                    0                    4.5910766305785175e-17    14                            3                           3                     0.0056884937614941006  0.99991993231407561  0.011221322039321318        7.7392781189896209e-14              3.5372395953377227e-13       
                     3.7662953465056196e-17                      16                                      3715.9332854695167              -2.2621446042951058e-05            -2.178320984479323e-18              4.0054010406322823e-21                 0.53427682609755267                        0.53427682609755267                          0.53427682609755267             -8.3067941998056647e-18  300                  300                  0                    0                    4.5965742263821233e-17    15                            4                           3                     0.0077821560310101564  0.99985157339906816  0.015273610320617964        9.6740976487370271e-14              4.5046493602114253e-13       
                     3.4894022065120977e-17                      17                                      4617.4922094888425              -4.0127190545000192e-05             0                                4.0054010406322823e-21                 0.53427682609755267                        0.53427682609755267                          0.53427682609755267             -1.1075725599740887e-17  400.00000000000006   400.00000000000006   0                    0                    4.5965742263821233e-17    16                            0                           4                     0.0077821560310101564  0.99985157339906816  0.015273610320617964        0                                4.5046493602114253e-13       
                     3.0071484452371261e-17                      18                                      4608.7030969284033              -4.011307431202586e-05            -4.8225376127497173e-18              6.3637933637309599e-21                 0.67574760850449089                        0.67574760850449089                          0.67574760850449089             -1.6045119745285914e-17  400.00000000000006   400.00000000000006   0                    0                    4.6110240404293444e-17    17                            1                           4                     0.011273809943158769  0.99969142935516908  0.02202674063480518        1.2092622060921284e-13              5.7139115663035537e-13       
                     2.4054735981333233e-17                      19                                      4597.475554665948               -4.0098271326295153e-05            -6.016748471038028e-18              1.0017035123994746e-20                 0.85151571155780215                        0.85151571155780215                          0.85151571155780215             -2.2326789699253589e-17  400.00000000000006   400.00000000000006   0                    0                    4.6371508645462823e-17    18                            2                           4                     0.01568751045215553  0.99940974673079974  0.030438450346408217        1.5115777576151604e-13              7.2254893239187141e-13       
                     1.6551056086684882e-17                      20                                      4598.5429682929507              -4.0084220551966221e-05            -7.5036798946483519e-18              1.5630338015775311e-20                 1.0694603615295608                         1.0694603615295608                           1.0694603615295608              -3.028717163000939e-17  400.00000000000006   400.00000000000006   0                    0                    4.6822597378678496e-17    19                            3                           4                     0.021280727230027385  0.99893041735670995  0.040905333963922534        1.8894721970189506e-13              9.114961520937665e-13       
                     7.1972333741396911e-18                      21                                      4606.4378502882628              -4.007362457796184e-05            -9.3538227125451904e-18              2.4179405036517586e-20                 1.3389534299925945                         1.3389534299925945                           1.3389534299925945              -4.0404890942668248e-17  400.00000000000006   400.00000000000006   0                    0                    4.7577944911771425e-17    20                            4                           4                     0.028389757664197598  0.99813271028072914  0.053911739069358332        2.3618402462736883e-13              1.1476801767211354e-12       
                    -2.9039893615273721e-18                      22                                      5503.5045621630989              -6.2545536165649739e-05             0                                2.4179405036517586e-20                 1.3389534299925945                         1.3389534299925945                           1.3389534299925945              -5.0506113678335312e-17  500.00000000000006   500.00000000000006   0                    0                    4.7577944911771425e-17    21                            0                           5                     0.028389757664197598  0.99813271028072914  0.053911739069358332        0                                1.1476801767211354e-12       
                    -2.1087176647357208e-17                      23                                      5513.1371440665562              -6.2519361833408547e-05            -1.8183187285829835e-17              3.7060985385528583e-20                 1.6706138587388777                         1.6706138587388777                           1.6706138587388777              -7.0322604281623953e-17  500.00000000000006   500.00000000000006   0                    0                    4.9198366648881214e-17    22                            1                           5                     0.039528713426369717  0.99644651292687048  0.074180871898562997        2.9523003078421105e-13              1.4429102075053462e-12       
                    -4.3718141277466529e-17                      24                                      5521.3565489357534              -6.2508350110921854e-05            -2.2630964630109321e-17              5.6251982311466462e-20                 2.0769745130947728                         2.0769745130947728                           2.0769745130947728              -9.5703202112256632e-17  500.00000000000006   500.00000000000006   0                    0                    5.1928808852478639e-17    23                            2                           5                     0.053795283734534252  0.99358561506338516  0.099240413810773351        3.6903753848026376e-13              1.8119477459856102e-12       
                    -7.1865235903192912e-17                      25                                      5525.7084330688713              -6.2528759195880636e-05            -2.8147094625726378e-17              8.4467236661109887e-20                 2.5702036268159101                         2.5702036268159101                           2.5702036268159101              -1.2834660107422981e-16  500.00000000000006   500.00000000000006   0                    0                    5.6396897934375799e-17    24                            3                           5                     0.072144313552357356  0.98883798255897593  0.13009576761033553        4.6129692310032975e-13              2.2732446690859397e-12       
                    -1.0685213921259724e-16                      26                                      5522.0412123508149              -6.2607035493243116e-05            -3.4986903309404334e-17              1.2533874575471273e-19                 3.1601805418043702                         3.1601805418043702                           3.1601805418043702              -1.7050909220732691e-16  500.00000000000006   500.00000000000006   0                    0                    6.3531614248974958e-17    25                            4                           5                     0.09584407618725109  0.98108495406130591  0.16786344916678153        5.7662115387541213e-13              2.8498658229613519e-12       
                    -1.4095395765406262e-16                      27                                      6419.7217811516948              -8.9812148953548321e-05             0                                1.2533874575471273e-19                 3.1601805418043702                         3.1601805418043702                           3.1601805418043702              -2.0461091064879229e-16  600                  600                  0                    0                    6.3531614248974958e-17    26                            0                           6                     0.09584407618725109  0.98108495406130591  0.16786344916678153        0                                2.8498658229613519e-12       
                    -2.021484277859746e-16                      28                                      6395.4816046486612              -8.9873013203326858e-05            -6.1194470131911988e-17              1.8219120654954841e-19                 3.8335625323760878                         3.8335625323760878                           3.8335625323760878              -2.7944581331349816e-16  600                  600                  0                    0                    7.7115194320974009e-17    27                            1                           6                     0.13089832666548151  0.96602751738473791  0.22246217024373705        7.0855163777794559e-13              3.5584174607392974e-12       
                    -2.5549125998007925e-16                      29                                      6357.0451629107793              -8.9986992400679878e-05            -5.3342832194104617e-17              2.3537588335344746e-19                 4.3561564370780177                         4.3561564370780177                           4.3561564370780177              -3.4705053467884096e-16  600                  600                  0                    0                    9.132389881540829e-17    28                            2                           6                     0.16256580737123752  0.94954310486833404  0.2677868110452809         6.1339874711571196e-13              4.1718162078550098e-12       
                    -3.0871762105156835e-16                      30                                      6303.923365631219               -9.0147044242749996e-05            -5.3226361071489103e-17              2.9158147351658445e-19                 4.8145429814717016                         4.8145429814717016                           4.8145429814717016              -4.1637213010256327e-16  600                  600                  0                    0                    1.0736292757747834e-16    29                            3                           6                     0.19503750818203811  0.93001756059490848  0.3109993333364614         6.1071983336624986e-13              4.7825360412212595e-12       
                    -3.6200192345646418e-16                      31                                      6255.3470973986641              -9.0336758062370211e-05            -5.3284302404895856e-17              3.5060859469884129e-19                 5.2034422988279747                         5.2034422988279747                           5.2034422988279747              -4.8723691482539261e-16  600                  600                  0                    0                    1.2488438277422957e-16    30                            4                           6                     0.22823207148480446  0.90749625615434759  0.35208159525294491        6.0972275589589009e-13              5.3922587971171491e-12       
                    -4.4320807592736295e-16                      32                                      7139.7935411537501              -0.00012139903296116469             0                                3.5060859469884129e-19                 5.2034422988279747                         5.2034422988279747                           5.2034422988279747              -5.6844306729629133e-16  700                  700                  0                    0                    1.2488438277422957e-16    31                            0                           7                     0.22823207148480446  0.90749625615434759  0.35208159525294491        0                                5.3922587971171491e-12       
                    -5.1472389625673431e-16                      33                                      7086.2984403516048              -0.00012133819854400873            -7.1515820329371346e-17              4.1139447604513715e-19                 5.5089692841678417                         5.5089692841678417                           5.5089692841678417              -6.6230951341325401e-16  700                  700                  0                    0                    1.4717422268047453e-16    32                            1                           7                     0.26591980957630379  0.87764458990203953  0.39814437300279892        6.0941091880918527e-13              6.0016697159263348e-12       
                    -5.7828586705379792e-16                      34                                      7035.6651504485644              -0.00012124963684136773            -6.3561970797063648e-17              4.668182360989419e-19                 5.7020392787563949                         5.7020392787563949                           5.7020392787563949              -7.4651671531613635e-16  700                  700                  0                    0                    1.6776403002623941e-16    33                            2                           7                     0.29972932407288316  0.84806538385435593  0.43626522607612334        5.3928193477727383e-13              6.5409516507036084e-12       
                    -6.2169203436414811e-16                      36                                      7026.4955657981227              -0.00012114722220402234            -4.3406167310350195e-17              5.0471682313378893e-19                 5.7853027990589529                         5.7853027990589529                           5.7853027990589529              -8.0407803862074139e-16  700                  700                  0                    0                    1.8188128743345946e-16    34                            3                           7                     0.32284041612595754  0.82644186453748847  0.46050239861815062        3.648121855030576e-13              6.9057638362066664e-12       
# Table End
