# ODT 1.0
# Table Start
# Title: mmArchive Data Table, Wed Jun 11 15:39:03 EDT 2014
# Columns: {Oxs_EulerEvolve:evolver:Total energy} {Oxs_EulerEvolve:evolver:Energy calc count} {Oxs_EulerEvolve:evolver:Max dm/dt} Oxs_EulerEvolve:evolver:dE/dt {Oxs_EulerEvolve:evolver:Delta E} Oxs_UniformExchange:NiFe:Energy {Oxs_UniformExchange:NiFe:Max Spin Ang} {Oxs_UniformExchange:NiFe:Stage Max Spin Ang} {Oxs_UniformExchange:NiFe:Run Max Spin Ang} Oxs_UZeeman::Energy  Oxs_UZeeman::B       Oxs_UZeeman::Bx      Oxs_UZeeman::By      Oxs_UZeeman::Bz      Oxs_Demag::Energy    Oxs_TimeDriver::Iteration {Oxs_TimeDriver::Stage iteration} Oxs_TimeDriver::Stage Oxs_TimeDriver::mx   Oxs_TimeDriver::my   Oxs_TimeDriver::mz   {Oxs_TimeDriver::Last time step} {Oxs_TimeDriver::Simulation time}
# Units:                     J                                        {}                                    deg/ns                             J/s                              J                                J                                  deg                                        deg                                          deg                              J                 mT                   mT                   mT                   mT                     J                       {}                            {}                          {}                   {}                   {}                   {}                          s                                 s                
                     4.7180877983014927e-16                      1                                       4627.7613284373083              -2.1901084531836232e-05             0                                3.8329264373502369e-18                 11.91421352468034                          11.91421352468034                            11.91421352468034                0                    0                    0                    0                    0                    4.6797585339279897e-16    0                             0                           0                     0.68496446966341096  0.56845676606882456  0.45189579632750815        0                                0                         
                     4.7176145715753392e-16                      2                                       4626.8930690105444              -2.1897829781497207e-05            -4.7322672615338466e-20              3.8307499527005382e-18                 11.912001697678027                         11.91421352468034                            11.91421352468034                0                    0                    0                    0                    0                    4.6793070720483336e-16    1                             1                           0                     0.68501837407792021  0.56841752012042523  0.45186438395196377        2.1608720265132553e-15              2.1608720265132553e-15       
                     4.717023134689639e-16                      3                                       4625.8057898214256              -2.1893763318687679e-05            -5.9143688570031572e-20              3.8280333778338068e-18                 11.909236009332192                         11.91421352468034                            11.91421352468034                0                    0                    0                    0                    0                    4.6787428009113007e-16    2                             2                           0                     0.68508574518674226  0.56836845863316221  0.45182511898066341        2.701090033141569e-15              4.8619620596548247e-15       
                     4.7162839893015919e-16                      4                                       4624.4436368263678              -2.1888683320291282e-05            -7.3914538804658042e-20              3.8246439468433326e-18                 11.905777486688873                         11.91421352468034                            11.91421352468034                0                    0                    0                    0                    0                    4.6780375498331583e-16    3                             3                           0                     0.68516994437111045  0.56830712544677109  0.45177603854600601        3.3763625414269613e-15              8.2383246010817856e-15       
                     4.715360292877004e-16                      5                                       4622.7361747535851              -2.1882338123286234e-05            -9.2369642458834359e-20              3.8204169615064262e-18                 11.901452129181893                         11.91421352468034                            11.91421352468034                0                    0                    0                    0                    0                    4.6771561232619396e-16    4                             4                           0                     0.68527517038099994  0.56823044908432419  0.45171468922282743        4.2204531767837017e-15              1.2458777777865488e-14       
                     7.6190195321680653e-17                      6                                       5197.0423964640568              -2.9784187585999043e-05             0                                3.8204169615064262e-18                 11.901452129181893                         11.901452129181893                           11.91421352468034               -3.9534583396601971e-16  100.00000000000001   100.00000000000001   0                    0                    4.6771561232619396e-16    5                             0                           1                     0.68527517038099994  0.56823044908432419  0.45171468922282743        0                                1.2458777777865488e-14       
                    -3.1915563864433907e-16                      7                                       5791.1852256682596              -4.1981469899447508e-05             0                                3.8204169615064262e-18                 11.901452129181893                         11.901452129181893                           11.91421352468034               -7.9069166793203943e-16  200.00000000000003   200.00000000000003   0                    0                    4.6771561232619396e-16    6                             0                           2                     0.68527517038099994  0.56823044908432419  0.45171468922282743        0                                1.2458777777865488e-14       
                    -3.1937708919773606e-16                      8                                       5787.6317623066398              -4.1975465144994404e-05            -2.2145055339695788e-19              3.8147494527022088e-18                 11.895439761467129                         11.901452129181893                           11.91421352468034               -7.9088870109760357e-16  200.00000000000003   200.00000000000003   0                    0                    4.6769686244716531e-16    7                             1                           2                     0.68544593471503656  0.56803865403230058  0.4516994721760208         5.2755664709796269e-15              1.7734344248845113e-14       
                    -3.1965385489347806e-16                      9                                       5783.1756490469434              -4.1967966086855621e-05            -2.7676569574202277e-19              3.8076907436082249e-18                 11.887919860082905                         11.901452129181893                           11.91421352468034               -7.9113490758157571e-16  200.00000000000003   200.00000000000003   0                    0                    4.6767336194448943e-16    8                             2                           2                     0.68565931648835687  0.56779886238247612  0.45168040472925586        6.594458088724534e-15              2.4328802337569649e-14       
                    -3.1999973790246241e-16                      10                                      5777.5832413138796              -4.1958602918165528e-05            -3.4588300898437108e-19              3.7989073044730116e-18                 11.878513057771668                         11.901452129181893                           11.91421352468034               -7.9144253287192991e-16  200.00000000000003   200.00000000000003   0                    0                    4.6764388766499453e-16    9                             3                           2                     0.68592592859748946  0.56749904816405039  0.45165649834068144        8.2430726109056679e-15              3.2571874948475314e-14       
                    -3.2043197606268099e-16                      11                                      5770.5580441648735              -4.1946915402815785e-05            -4.3223816021853567e-19              3.787990087363718e-18                 11.866743762398974                         11.901452129181893                           11.91421352468034               -7.9182685687556015e-16  200.00000000000003   200.00000000000003   0                    0                    4.6760689072551556e-16    10                            4                           2                     0.68625901380345611  0.56712416390823617  0.45162650275109345        1.0303840763632085e-14              4.28757157121074e-14       
                    -7.1634540450046106e-16                      12                                      6375.4790741738507              -5.8418490678889354e-05             0                                3.787990087363718e-18                 11.866743762398974                         11.866743762398974                           11.91421352468034               -1.1877402853133403e-15  300                  300                  0                    0                    4.6760689072551556e-16    11                            0                           3                     0.68625901380345611  0.56712416390823617  0.45162650275109345        0                                4.28757157121074e-14       
                    -7.1709754268992912e-16                      13                                      6365.1965837667176              -5.8404505672616714e-05            -7.5213818946809353e-19              3.7739588382107621e-18                 11.851282502323354                         11.866743762398974                           11.91421352468034               -1.1885430839144659e-15  300                  300                  0                    0                    4.6767158238632601e-16    12                            1                           3                     0.68672285912646447  0.56653826784617822  0.45166360211647272        1.2879800954540105e-14              5.5755516666647507e-14       
                    -7.1803740363506504e-16                      14                                      6352.2550687210269              -5.8387029614877718e-05            -9.3986094513586137e-19              3.7565746724565146e-18                 11.831932440045581                         11.866743762398974                           11.91421352468034               -1.1895456791776789e-15  300                  300                  0                    0                    4.6775170087015741e-16    13                            2                           3                     0.68730214404681655  0.5658055056749246   0.45170944613379088        1.6099751193175132e-14              7.1855267859822638e-14       
                    -7.1921174340121165e-16                      15                                      6335.9410907285692              -5.8365191029328228e-05            -1.174339766146593e-18              3.7350839243098897e-18                 11.80770836010249                          11.866743762398974                           11.91421352468034               -1.1907975103432409e-15  300                  300                  0                    0                    4.6785068301771933e-16    14                            3                           3                     0.68802543383646975  0.56488894223097863  0.45176592288688128        2.0124688991468916e-14              9.1979956851291557e-14       
                    -7.2067890949454527e-16                      16                                      6315.3364780124666              -5.8337899778855875e-05            -1.4671660933336688e-18              3.7085897069671589e-18                 11.777371615594564                         11.866743762398974                           11.91421352468034               -1.1923600877379414e-15  300                  300                  0                    0                    4.6797258853642904e-16    15                            4                           3                     0.68892826826512255  0.56374228740768473  0.45183522495899109        2.5155861239336143e-14              1.171358180906277e-13       
                    -1.1181322720738592e-15                      17                                      6923.2815142046866              -7.9019576888925055e-05             0                                3.7085897069671589e-18                 11.777371615594564                         11.777371615594564                           11.91421352468034               -1.5898134503172553e-15  400.00000000000006   400.00000000000006   0                    0                    4.6797258853642904e-16    16                            0                           4                     0.68892826826512255  0.56374228740768473  0.45183522495899109        0                                1.171358180906277e-13       
                    -1.1206139935079171e-15                      18                                      6893.8799697608101              -7.8978640798377592e-05            -2.4817214340579024e-18              3.6749001196383918e-18                 11.737587281855809                         11.777371615594564                           11.91421352468034               -1.592679733528755e-15  400.00000000000006   400.00000000000006   0                    0                    4.6839083990119956e-16    17                            1                           4                     0.6901703407415265   0.56202142915907605  0.45210038627250598        3.1444826549170181e-14              1.4858064463979787e-13       
                    -1.1237136025038045e-15                      19                                      6856.6108531619002              -7.8927181127622326e-05            -3.0996089958873934e-18              3.6336884803123387e-18                 11.687736575832492                         11.777371615594564                           11.91421352468034               -1.5962539411415105e-15  400.00000000000006   400.00000000000006   0                    0                    4.689066501573937e-16    18                            2                           4                     0.69171918451346992  0.55986727838576567  0.45242672696676228        3.9306033186462724e-14              1.8788667782626059e-13       
                    -1.1275841357545044e-15                      20                                      6809.2354062255663              -7.8862378413112861e-05            -3.8705332506999668e-18              3.5835445891942231e-18                 11.625238059119935                         11.777371615594564                           11.91421352468034               -1.6007081271019716e-15  400.00000000000006   400.00000000000006   0                    0                    4.6954044675827299e-16    19                            3                           4                     0.69364935727660693  0.55716982455340092  0.45282666952491357        4.9132541483078405e-14              2.3701921930933902e-13       
                    -1.1324160744086613e-15                      21                                      6748.8208665856646              -7.8780579457711484e-05            -4.8319386541568401e-18              3.5229383251704564e-18                 11.546831377763027                         11.777371615594564                           11.91421352468034               -1.6062545276872136e-15  400.00000000000006   400.00000000000006   0                    0                    4.7031551495338201e-16    20                            4                           4                     0.69605282930002765  0.55379064750595142  0.4533141290190989         6.1415676853848012e-14              2.9843489616318702e-13       
                    -1.5339797063304646e-15                      22                                      7347.4686019805931              -0.00010346389071188059             0                                3.5229383251704564e-18                 11.546831377763027                         11.546831377763027                           11.91421352468034               -2.0078181596090172e-15  500.00000000000006   500.00000000000006   0                    0                    4.7031551495338201e-16    21                            0                           5                     0.69605282930002765  0.55379064750595142  0.4533141290190989         0                                2.9843489616318702e-13       
                    -1.5418920324867222e-15                      23                                      7262.3658804649276              -0.00010331225878830952            -7.9123261562575314e-18              3.4477077319623721e-18                 11.444134774350809                         11.546831377763027                           11.91421352468034               -2.0172348886357993e-15  500.00000000000006   500.00000000000006   0                    0                    4.7189514841711492e-16    22                            1                           5                     0.69931733851390976  0.54885532816913696  0.45433039036258138        7.6769596067310012e-14              3.7520449223049701e-13       
                    -1.5517585635019177e-15                      24                                      7153.3464469165056              -0.00010311819815893248            -9.8665310151954479e-18              3.3584630646186442e-18                 11.315199136062601                         11.546831377763027                           11.91421352468034               -2.0289267766045721e-15  500.00000000000006   500.00000000000006   0                    0                    4.7380975003803576e-16    23                            2                           5                     0.70337057992004781  0.54266364606747453  0.45555611898488618        9.5961995084137509e-14              4.7116648731463449e-13       
                    -1.5640539951773027e-15                      25                                      7013.2823030395693              -0.00010286817773470492            -1.2295431675385101e-17              3.2539474681408905e-18                 11.153194592525592                         11.546831377763027                           11.91421352468034               -2.0434165251523797e-15  500.00000000000006   500.00000000000006   0                    0                    4.7610858250693618e-16    24                            3                           5                     0.70839375914784775  0.53488983253753686  0.45701865646786888        1.1995249385517188e-13              5.9111898116980642e-13       
                    -1.5793634009345981e-15                      26                                      6832.9536349643913              -0.00010254333413720625            -1.5309405757295384e-17              3.1334988912294472e-18                 10.949485953153379                         11.546831377763027                           11.91421352468034               -2.0613301011227821e-15  500.00000000000006   500.00000000000006   0                    0                    4.7883320129695463e-16    25                            4                           5                     0.71460388090484372  0.52512107344619541  0.45873817903006947        1.4994061731896486e-13              7.4105959848877126e-13       
                    -1.9916294211591547e-15                      27                                      7397.7716040856494              -0.00013056718057046364             0                                3.1334988912294472e-18                 10.949485953153379                         10.949485953153379                           11.91421352468034               -2.4735961213473386e-15  600                  600                  0                    0                    4.7883320129695463e-16    26                            0                           6                     0.71460388090484372  0.52512107344619541  0.45873817903006947        0                                7.4105959848877126e-13       
                    -2.0158157525030462e-15                      28                                      7147.8820398260914              -0.00012991208231308762            -2.4186331343891636e-17              2.9921133884074155e-18                 10.683257153582632                         10.949485953153379                           11.91421352468034               -2.5022409047426586e-15  600                  600                  0                    0                    4.8343303885120493e-16    27                            1                           6                     0.72287914993737468  0.51111428595223862  0.46165818627003075        1.8742577164870607e-13              9.284853701374773e-13       
                    -2.0458088638525338e-15                      29                                      6828.4629504971608              -0.00012904139344162413            -2.999311134948754e-17              2.8363353968153073e-18                 10.348797283889997                         10.949485953153379                           11.91421352468034               -2.5373277724574967e-15  600                  600                  0                    0                    4.8868257320814753e-16    28                            2                           6                     0.73301549015129819  0.49346599810529868  0.46494504257936797        2.3428221456088258e-13              1.16276758469836e-12       
                    -2.0829111108474354e-15                      30                                      6481.2941702514354              -0.00012786760109708887            -3.7102246994901549e-17              2.6701455556639644e-18                 9.9291252825924445                         10.949485953153379                           11.91421352468034               -2.5800291874013667e-15  600                  600                  0                    0                    4.9444793099826764e-16    29                            3                           6                     0.74535161753105683  0.47120933834574191  0.46848857958856299        2.9285276820110325e-13              1.4556203528994631e-12       
                    -2.1286498879469493e-15                      31                                      6372.0594019801902              -0.00012626009297526017            -4.5738777099513872e-17              2.5002529215970755e-18                 9.404276696011161                          10.949485953153379                           11.91421352468034               -2.6315379345516432e-15  600                  600                  0                    0                    5.0038779368309674e-16    30                            4                           6                     0.76023211895830056  0.44312561949971607  0.47204093491857418        3.6606596025137904e-13              1.8216863131508421e-12       
                    -2.5672395437055561e-15                      32                                      7004.5979408465319              -0.0001555730981766816             0                                2.5002529215970755e-18                 9.404276696011161                          9.404276696011161                            11.91421352468034               -3.07012759031025e-15  700                  700                  0                    0                    5.0038779368309674e-16    31                            0                           7                     0.76023211895830056  0.44312561949971607  0.47204093491857418        0                                1.8216863131508421e-12       
                    -2.6290922827208797e-15                      33                                      6901.9991187046699              -0.00015269461124403942            -6.1852739015323588e-17              2.3381198037162121e-18                 8.7991121675779542                         9.404276696011161                            11.91421352468034               -3.1390242981771628e-15  700                  700                  0                    0                    5.0759389565256676e-16    32                            1                           7                     0.77729248165339659  0.40761571167338234  0.47629598705740939        4.1046238446388507e-13              2.2321486976147274e-12       
                    -2.6920760080197734e-15                      34                                      6784.4833524025698              -0.00014936378367443097            -6.2983725298893576e-17              2.2016129133623824e-18                 8.1823159388380198                         9.404276696011161                            11.91421352468034               -3.2067408959698401e-15  700                  700                  0                    0                    5.1246327503670417e-16    33                            2                           7                     0.79406062275315192  0.37050585274141506  0.47897057331103859        4.2653257568134573e-13              2.658681273296073e-12       
                    -2.7552628923859686e-15                      35                                      6652.7473628625467              -0.0001455830639056385            -6.3186884366195207e-17              2.0892815505572421e-18                 7.7432031799390728                         9.404276696011161                            11.91421352468034               -3.2720442791748801e-15  700                  700                  0                    0                    5.1469210523835433e-16    34                            3                           7                     0.81023119805621169  0.33232664384542104  0.47989989027851598        4.3809683227427256e-13              3.0967781055703455e-12       
# Table End
