# ODT 1.0
# Table Start
# Title: mmArchive Data Table, Wed Jun 16 18:44:25 EDT 2010
# Columns: {Oxs_EulerEvolve:evolver:Total energy} {Oxs_EulerEvolve:evolver:Energy calc count} {Oxs_EulerEvolve:evolver:Max dm/dt} Oxs_EulerEvolve:evolver:dE/dt {Oxs_EulerEvolve:evolver:Delta E} Oxs_UniformExchange:NiFe:Energy {Oxs_UniformExchange:NiFe:Max Spin Ang} {Oxs_UniformExchange:NiFe:Stage Max Spin Ang} {Oxs_UniformExchange:NiFe:Run Max Spin Ang} Oxs_UZeeman::Energy  Oxs_UZeeman::B       Oxs_UZeeman::Bx      Oxs_UZeeman::By      Oxs_UZeeman::Bz      Oxs_Demag::Energy    Oxs_TimeDriver::Iteration {Oxs_TimeDriver::Stage iteration} Oxs_TimeDriver::Stage Oxs_TimeDriver::mx   Oxs_TimeDriver::my   Oxs_TimeDriver::mz   {Oxs_TimeDriver::Last time step} {Oxs_TimeDriver::Simulation time}
# Units:                     J                                        {}                                    deg/ns                             J/s                              J                                J                                  deg                                        deg                                          deg                              J                 mT                   mT                   mT                   mT                     J                       {}                            {}                          {}                   {}                   {}                   {}                          s                                 s                
                     4.5880582214502012e-17                      1                                       1203.3713743026767              -1.5287227788625419e-07             0                                0                                   0                                          0                                            0                                0                    0                    0                    0                    0                    4.5880582214502012e-17    0                             0                           0                     0                    1                    0                          0                                0                         
                     4.5879313353541219e-17                      2                                       1202.7553933744275              -1.526956962488269e-07            -1.2688609607910339e-21              1.4271443471189046e-24                 0.0099687610208092966                        0.0099687610208092966                          0.0099687610208092966              0                    0                    0                    0                    0                    4.587931192639687e-17    1                             1                           0                    -1.4055414642246515e-07  0.99999999947796936 -2.811082928449303e-07        8.3099866039232883e-15              8.3099866039232883e-15       
                     4.587772957829088e-17                      3                                       1201.9854009753915              -1.5247535470190535e-07            -1.5837752503415614e-21              7.2171517474742222e-24                 0.022422478226372927                        0.022422478226372927                          0.022422478226372927              0                    0                    0                    0                    0                    4.5877722361139129e-17    2                             2                           0                    -3.165118870034491e-07  0.99999999735891709 -6.3232783131299521e-07        1.0387483254904111e-14              1.8697469858827399e-14       
                     4.5877842194858685e-17                      4                                       1941.872703497768               -2.6445382152167524e-06             0                                7.2171517474742222e-24                 0.022422478226372927                        0.022422478226372927                          0.022422478226372927              1.1261656781030109e-22  100.00000000000001   100.00000000000001   0                    0                    4.5877722361139129e-17    3                             0                           1                    -3.165118870034491e-07  0.99999999735891709 -6.3232783131299521e-07        0                                1.8697469858827399e-14       
                     4.5877954811426496e-17                      5                                       2843.5401176301434              -1.0144794879310617e-05             0                                7.2171517474742222e-24                 0.022422478226372927                        0.022422478226372927                          0.022422478226372927              2.2523313562060219e-22  200.00000000000003   200.00000000000003   0                    0                    4.5877722361139129e-17    4                             0                           2                    -3.165118870034491e-07  0.99999999735891709 -6.3232783131299521e-07        0                                1.8697469858827399e-14       
                     4.5746319899646546e-17                      6                                       2842.6948303152808              -1.0144066371943365e-05            -1.316349117799549e-19              2.069362050847222e-23                 0.037978314445543213                        0.037978314445543213                          0.037978314445543213             -1.2967426737031235e-19  200.00000000000003   200.00000000000003   0                    0                    4.5875973473396348e-17    5                             1                           2                     0.00018222650476395127  0.99999990940666361  0.00036445566255334234        1.2984354068630137e-14              3.1681823927457535e-14       
                     4.5581815720562566e-17                      7                                       2841.6357462262968              -1.0143167267229514e-05            -1.6450417908397681e-19              4.7247536632643092e-23                 0.057409013097502862                        0.057409013097502862                          0.057409013097502862             -2.9225419952988142e-19  200.00000000000003   200.00000000000003   0                    0                    4.5874022672555813e-17    6                             2                           2                     0.00041069413664649118  0.99999956161578674  0.00082065793914160425        1.6230442585787674e-14              4.7912266513245208e-14       
                     4.5435688620797623e-17                      8                                       3743.3022085268467              -2.2651096948249867e-05             0                                4.7247536632643092e-23                 0.057409013097502862                        0.057409013097502862                          0.057409013097502862             -4.3838129929482213e-19  300                  300                  0                    0                    4.5874022672555813e-17    7                             0                           3                     0.00041069413664649118  0.99999956161578674  0.00082065793914160425        0                                4.7912266513245208e-14       
                     4.4976618589991483e-17                      9                                       3741.9667436672189              -2.2649109250605832e-05            -4.590700308061413e-19              9.5531165115952366e-23                 0.0816752891925666                         0.0816752891925666                           0.0816752891925666              -8.9610966514780323e-19  300                  300                  0                    0                    4.5872632723974172e-17    8                             1                           3                     0.00083951342326978756  0.99999820770258885  0.0016762313273478364        2.028805323223459e-14              6.8200319745479805e-14       
                     4.4402980000888224e-17                      10                                      3740.2904546099844              -2.2646678804122581e-05            -5.7363858910326285e-19              1.7931389401852553e-22                 0.11197786291321374                        0.11197786291321374                          0.11197786291321374             -1.469398757418284e-18  300                  300                  0                    0                    4.5872199444412486e-17    9                             2                           3                     0.0013765948844945562  0.99999521882598874  0.0027451176314529416        2.5360066540293238e-14              9.356038628577303e-14       
                     4.3913180415082124e-17                      11                                      4641.9538249573025              -4.0161549585234598e-05             0                                1.7931389401852553e-22                 0.11197786291321374                        0.11197786291321374                          0.11197786291321374             -1.9591983432243786e-18  400.00000000000006   400.00000000000006   0                    0                    4.5872199444412486e-17    10                            0                           4                     0.0013765948844945562  0.99999521882598874  0.0027451176314529416        0                                9.356038628577303e-14       
                     4.2642110764054647e-17                      12                                      4639.8291672951445              -4.0156665842133938e-05            -1.271069651027479e-18              3.2035311614248343e-22                 0.14980830205290541                        0.14980830205290541                          0.14980830205290541             -3.2345456297811722e-18  400.00000000000006   400.00000000000006   0                    0                    4.5876336040719676e-17    11                            1                           4                     0.0022726943308317405  0.99998705495718876  0.0045265082176528752        3.1700083175366547e-14              1.2526046946113958e-13       
                     4.1054108825614114e-17                      13                                      4637.1521385873184              -4.0150754159280591e-05            -1.5880019384405339e-18              5.5281433434070645e-22                 0.19703157064319768                        0.19703157064319768                          0.19703157064319768             -4.8336170919542382e-18  400.00000000000006   400.00000000000006   0                    0                    4.5887173103234011e-17    12                            2                           4                     0.0033962526486414095  0.99997123853501213  0.0067513318954825954        3.9625103969208186e-14              1.6488557343034776e-13       
                     3.9845704552625554e-17                      14                                      5538.8048563058856              -6.2671035367890389e-05             0                                5.5281433434070645e-22                 0.19703157064319768                        0.19703157064319768                          0.19703157064319768             -6.0420213649427977e-18  500.00000000000006   500.00000000000006   0                    0                    4.5887173103234011e-17    13                            0                           5                     0.0033962526486414095  0.99997123853501213  0.0067513318954825954        0                                1.6488557343034776e-13       
                     3.6749358790363138e-17                      15                                      5535.3753555363301              -6.2659948103518489e-05            -3.0963457622624166e-18              9.3002777503074778e-22                 0.25595663499055249                        0.25595663499055249                          0.25595663499055249             -9.1702178139840267e-18  500.00000000000006   500.00000000000006   0                    0                    4.5918646576572132e-17    14                            1                           5                     0.0051546286678277485  0.99993407918137756  0.010226472659298599        4.9531379961510229e-14              2.14416953391858e-13       
                     3.2882074644016865e-17                      16                                      5531.0203905829421              -6.264663896421579e-05            -3.8672841463462753e-18              1.5347658055384313e-21                 0.3294717249843388                         0.3294717249843388                           0.3294717249843388              -1.3099001691617455e-17  500.00000000000006   500.00000000000006   0                    0                    4.5979541569828776e-17    15                            2                           5                     0.0073630191789524173  0.99986625577041233  0.014564365276364613        6.1914224951887791e-14              2.7633117834374577e-13       
                     3.0262274305693369e-17                      17                                      6432.6365563708196              -9.0168869937504189e-05             0                                1.5347658055384313e-21                 0.3294717249843388                         0.3294717249843388                           0.3294717249843388              -1.5718802029940946e-17  600                  600                  0                    0                    4.5979541569828776e-17    16                            0                           6                     0.0073630191789524173  0.99986625577041233  0.014564365276364613        0                                2.7633117834374577e-13       
                     2.3311596043833168e-17                      18                                      6426.9401490081009              -9.0144677187955271e-05            -6.9506782618602045e-18              2.4946608627809288e-21                 0.42112985898341448                        0.42112985898341448                          0.42112985898341448             -2.2809109310312014e-17  600                  600                  0                    0                    4.6118210693282401e-17    17                            1                           6                     0.010684269003881619  0.99972006792832258  0.021066073630518916        7.7392781189859733e-14              3.5372395953360552e-13       
                     1.4634421641724237e-17                      19                                      6419.5970086406787              -9.011564119229689e-05            -8.6771744021089311e-18              4.0052977191001467e-21                 0.53537177708033656                        0.53537177708033656                          0.53537177708033656             -3.1736349602054053e-17  600                  600                  0                    0                    4.6366765946059189e-17    18                            2                           6                     0.014865977085579518  0.99946229367414241  0.029174265708478437        9.6740976487324669e-14              4.5046493602093018e-13       
                     9.3450300413818943e-18                      20                                      7321.0910738200455              -0.00012263101734046294             0                                4.0052977191001467e-21                 0.53537177708033656                        0.53537177708033656                          0.53537177708033656             -3.7025741202396396e-17  700                  700                  0                    0                    4.6366765946059189e-17    19                            0                           7                     0.014865977085579518  0.99946229367414241  0.029174265708478437        0                                4.5046493602093018e-13       
                    -5.3903843253926098e-18                      21                                      7311.1264198151812              -0.00012257749864566712            -1.4735414366774504e-17              6.3636856637148137e-21                 0.67758118276470836                        0.67758118276470836                          0.67758118276470836             -5.2278708377611665e-17  700                  700                  0                    0                    4.6881960366555339e-17    20                            1                           7                     0.020990101901186744  0.99893713899067504  0.040978417102363614        1.2092622060915584e-13              5.7139115663008607e-13       
# Table End
