# ODT 1.0
# Table Start
# Title: mmArchive Data Table, Wed Aug 17 23:55:37 EDT 2011
# Columns: {Oxs_CGEvolve:evolve:Max mxHxm} {Oxs_CGEvolve:evolve:Total energy} {Oxs_CGEvolve:evolve:Delta E} {Oxs_CGEvolve:evolve:Bracket count} {Oxs_CGEvolve:evolve:Line min count} {Oxs_CGEvolve:evolve:Conjugate cycle count} {Oxs_CGEvolve:evolve:Cycle count} {Oxs_CGEvolve:evolve:Cycle sub count} {Oxs_CGEvolve:evolve:Energy calc count} Oxs_UniaxialAnisotropy::Energy Oxs_UniformExchange::Energy {Oxs_UniformExchange::Max Spin Ang} {Oxs_UniformExchange::Stage Max Spin Ang} {Oxs_UniformExchange::Run Max Spin Ang} Oxs_UZeeman::Energy  Oxs_UZeeman::B       Oxs_UZeeman::Bx      Oxs_UZeeman::By      Oxs_UZeeman::Bz      Oxs_Demag::Energy    Oxs_MinDriver::Iteration {Oxs_MinDriver::Stage iteration} Oxs_MinDriver::Stage Oxs_MinDriver::mx    Oxs_MinDriver::my    Oxs_MinDriver::mz   
# Units:                 A/m                               J                                J                               {}                                   {}                                      {}                                     {}                                  {}                                     {}                                  J                             J                              deg                                    deg                                      deg                            J                 mT                   mT                   mT                   mT                     J                       {}                           {}                         {}                 {}                   {}                   {}           
                 175069.77996500774                3.5435697571766671e-17             3.5435697571766671e-17              0                                    0                                       1                                      1                                   1                                      1                                   5.4000000000000011e-19          0                               0                                      0                                        0                              0                    0                    0                    0                    0                    3.4895697571766672e-17    0                            0                          0                    0                    0                    0                  
                 173885.25344431406                3.542412033938991e-17            -1.1577232376761032e-20              1                                    0                                       1                                      1                                   1                                      2                                   5.3999600368249558e-19          4.4016338397582339e-23             0.058725196073967055                    0.058725196073967055                      0.058725196073967055            0                    0                    0                    0                    0                    3.4884080319369017e-17    1                            1                          0                    1.0855514018557085e-21 -2.1979455292845766e-18  3.9618155669687538e-16
                 165637.90330013822                3.5345941272422325e-17            -7.8179066967585095e-20              2                                    0                                       1                                      1                                   1                                      3                                   5.3996914631936017e-19          2.8169863831565658e-21             0.46979897630116774                    0.46979897630116774                      0.46979897630116774            0                    0                    0                    0                    0                    3.48031551397198e-17    2                            2                          0                   -2.1118909090647421e-20  5.8611880780922042e-18  2.0283486140076296e-13
                 202927.02198191133                3.5345941272422325e-17             0                                2                                    0                                       2                                      2                                   2                                      4                                   5.3996914631936017e-19          2.8169863831565658e-21             0.46979897630116774                    0.46979897630116774                      0.46979897630116774           -1.128474576789396e-36  50.002499937503124   50                   0.5                  0                    3.48031551397198e-17    3                            0                          1                   -2.1118909090647421e-20  5.8611880780922042e-18  2.0283486140076296e-13
                 202064.80656492495                3.5332342256153483e-17            -1.3599016268841937e-20              3                                    0                                       2                                      2                                   0                                      5                                   5.3996604546554169e-19          3.3804396395548969e-21             0.51426086805578453                    0.51426086805578453                      0.51426086805578453           -4.9278677549496859e-21  50.002499937503124   50                   0.5                  0                    3.4793923638803334e-17    4                            1                          1                    0.00017110651917268265  9.6403536341919491e-12  9.0479252334753184e-11
                 196057.56884334044                3.5238812640950658e-17            -9.3529615202825096e-20              4                                    0                                       2                                      2                                   0                                      6                                   5.3994602659403203e-19          8.7641805562879042e-21             0.82549233581636494                    0.82549233581636494                      0.82549233581636494           -3.9422704234324103e-20  50.002499937503124   50                   0.5                  0                    3.4729525138034658e-17    5                            2                          1                    0.0013688438957620355  1.2631073114890669e-10  7.226710409785002e-10
                 234360.58839448835                3.519938993671633e-17            -3.9422704234327823e-20              4                                    0                                       3                                      3                                   1                                      7                                   5.3994602659403203e-19          8.7641805562879042e-21             0.82549233581636494                    0.82549233581636494                      0.82549233581636494           -7.8845408468648206e-20  100.00499987500625   100                  1                    0                    3.4729525138034658e-17    6                            0                          2                    0.0013688438957620355  1.2631073114890669e-10  7.226710409785002e-10
                 233712.73249510711                3.517558067826297e-17            -2.3809258453359823e-20              5                                    0                                       3                                      3                                   0                                      8                                   5.3994405031648337e-19          9.5217710275669335e-21             0.85995259845440297                    0.85995259845440297                      0.85995259845440297           -9.5921837135499876e-20  100.00499987500625   100                  1                    0                    3.4722036694054423e-17    7                            1                          2                    0.0016653096705962142  1.8951032176220097e-10  8.6582938788283388e-10
                 229191.6530049686                 3.5009898275655405e-17            -1.6568240260756456e-19              6                                    0                                       3                                      3                                   0                                      9                                   5.3993345811002832e-19          1.5706943321829121e-20             1.1011712231541992                     1.1011712231541992                       1.1011712231541992            -2.154554864407786e-19  100.00499987500625   100                  1                    0                    3.4669713360664326e-17    8                            2                          2                    0.0037405466313679158  8.2289263147888248e-10  1.8681971229160944e-09
                 152954.50703536248                3.5225353761859192e-17             2.1545548620378678e-19              6                                    0                                       4                                      4                                   1                                      10                                  5.3993345811002832e-19          1.5706943321829121e-20             1.1011712231541992                     1.1011712231541992                       1.1011712231541992            -2.3699307842988243e-28  0.5                  0                    0.5                  0                    3.4669713360664326e-17    9                            0                          3                    0.0037405466313679158  8.2289263147888248e-10  1.8681971229160944e-09
                 151951.31093272869                3.521593068555225e-17            -9.4230763069425948e-21              7                                    0                                       4                                      4                                   0                                      11                                  5.3993000137009877e-19          1.7134867422824511e-20             1.1491983192724671                     1.1491983192724671                       1.1491983192724671            -2.7518624941784494e-28  0.5                  0                    0.5                  0                    3.4658865817034512e-17    10                           1                          3                    0.0037411909778028228  9.5550780899126638e-10  2.1710571290224971e-09
                 144974.57970416109                3.5152028954296442e-17            -6.3901731255807098e-20              8                                    0                                       4                                      4                                   0                                      12                                  5.3990714281613225e-19          2.8878645681933033e-20             1.4853865734575213                     1.4853865734575213                       1.4853865734575213            -5.9307651198655715e-28  0.5                  0                    0.5                  0                    3.4583243166391459e-17    11                           2                          3                    0.0037456934724460727  2.0592934413596391e-09  4.2919578847635774e-09
                 221396.32425967138                3.5367780898902417e-17             2.1575194460597497e-19              8                                    0                                       5                                      5                                   1                                      13                                  5.3990714281613225e-19          2.8878645681933033e-20             1.4853865734575213                     1.4853865734575213                       1.4853865734575213             2.1575194401289373e-19  100                 -100                  0                    0                    3.4583243166391459e-17    12                           0                          4                    0.0037456934724460727  2.0592934413596391e-09  4.2919578847635774e-09
                 220842.66659453043                3.534400773428871e-17            -2.377316461370735e-20              9                                    0                                       5                                      5                                   0                                      14                                  5.3990384523223402e-19          3.0036762764161238e-20             1.5139869752949562                     1.5139869752949562                       1.5139869752949562             1.977115183579685e-19  100                 -100                  0                    0                    3.4576355607934346e-17    13                           1                          4                    0.0034324916381591685  2.0551661250212619e-09  4.5872113270368528e-09
                 216976.54296863073                3.5178302175840707e-17            -1.6570555844800353e-19              10                                   0                                       5                                      5                                   0                                      15                                  5.3988434708247067e-19          3.878770049758517e-20             1.7141845717339357                     1.7141845717339357                       1.7141845717339357             7.1429359385212679e-20  100                 -100                  0                    0                    3.4528200768875442e-17    14                           2                          4                    0.0012400930448821644  2.0146986535362683e-09  6.6544527048624976e-09
                 139980.11675306817                3.5106872816455498e-17            -7.142935938520902e-20              10                                   0                                       6                                      6                                   1                                      16                                  5.3988434708247067e-19          3.878770049758517e-20             1.7141845717339357                     1.7141845717339357                       1.7141845717339357             0                    0                    0                    0                    0                    3.4528200768875442e-17    15                           0                          5                    0.0012400930448821644  2.0146986535362683e-09  6.6544527048624976e-09
                 139094.8367411533                 3.5098436428974091e-17            -8.4363874814062079e-21              11                                   0                                       6                                      6                                   0                                      17                                  5.3988138896017336e-19          4.0739013011298822e-20             1.7551265898410073                     1.7551265898410073                       1.7551265898410073             0                    0                    0                    0                    0                    3.4517816027002621e-17    16                           1                          5                    0.0012403466427198266  2.0516233907225493e-09  7.2113939151374018e-09
                 132939.73866637208                3.5041000163506445e-17            -5.7436265467646245e-20              12                                   0                                       6                                      6                                   0                                      18                                  5.3986219150232796e-19          5.5758997032258712e-20             2.0417198328906343                     2.0417198328906343                       2.0417198328906343             0                    0                    0                    0                    0                    3.4445378974971856e-17    17                           2                          5                    0.0012421192068735787  2.2847530601160948e-09  1.1111552528761355e-08
                 133674.96246050257                3.5041000130606003e-17            -3.2900442454325468e-26              12                                   0                                       7                                      7                                   1                                      19                                  5.3986219150232796e-19          5.5758997032258712e-20             2.0417198328906343                     2.0417198328906343                       2.0417198328906343            -3.2900443975509197e-26  25                   0                    25                   0                    3.4445378974971856e-17    18                           0                          6                    0.0012421192068735787  2.2847530601160948e-09  1.1111552528761355e-08
                 132874.31056002318                3.5033068213031813e-17            -7.931917574190014e-21              13                                   0                                       7                                      7                                   0                                      20                                  5.3985961778999283e-19          5.7887198018480996e-20             2.0784493534060218                     2.0784493534060218                       2.0784493534060218            -2.8009269005514047e-25  25                   0                    25                   0                    3.4435321677316027e-17    19                           1                          6                    0.0012423865486852932  1.9450881260733392e-08  1.1839055989364609e-08
                 127307.74591231272                3.4978913011376902e-17            -5.4155201654910522e-20              14                                   0                                       7                                      7                                   0                                      21                                  5.3984320155324591e-19          7.3929211207174731e-20             2.3355553560158633                     2.3355553560158633                       2.3355553560158633            -2.3209114757113431e-24  25                   0                    25                   0                    3.4365142919527961e-17    20                           2                          6                    0.0012442553444904944  1.6117440803408398e-07  1.6933668365152322e-08
# Table End
