# ODT 1.0
# Table Start
# Title: mmArchive Data Table, Wed Jun 11 15:39:15 EDT 2014
# Columns: {Oxs_CGEvolve::Max mxHxm} {Oxs_CGEvolve::Total energy} {Oxs_CGEvolve::Delta E} {Oxs_CGEvolve::Bracket count} {Oxs_CGEvolve::Line min count} {Oxs_CGEvolve::Conjugate cycle count} {Oxs_CGEvolve::Cycle count} {Oxs_CGEvolve::Cycle sub count} {Oxs_CGEvolve::Energy calc count} Oxs_UniformExchange::Energy {Oxs_UniformExchange::Max Spin Ang} {Oxs_UniformExchange::Stage Max Spin Ang} {Oxs_UniformExchange::Run Max Spin Ang} Oxs_UZeeman::Energy  Oxs_UZeeman::B       Oxs_UZeeman::Bx      Oxs_UZeeman::By      Oxs_UZeeman::Bz      Oxs_Demag::Energy    Oxs_MinDriver::Iteration {Oxs_MinDriver::Stage iteration} Oxs_MinDriver::Stage Oxs_MinDriver::mx    Oxs_MinDriver::my    Oxs_MinDriver::mz   
# Units:              A/m                         J                          J                         {}                             {}                                {}                               {}                            {}                               {}                              J                              deg                                    deg                                      deg                            J                 mT                   mT                   mT                   mT                     J                       {}                           {}                         {}                 {}                   {}                   {}           
              185486.6891057647           3.8247185152586342e-16       3.8247185152586342e-16        0                              0                                 1                                1                             0                                1                              0                               0                                      0                                        0                              0                    0                    0                    0                    0                    3.8247185152586342e-16    0                            0                          0                    1                    0                    0                  
              183736.71036411199          3.8244102325255444e-16      -3.0828273308994988e-20        1                              0                                 1                                1                             0                                2                              2.2393436545364664e-22             0.036959716503845552                    0.036959716503845552                      0.036959716503845552            0                    0                    0                    0                    0                    3.8244079931818901e-16    1                            1                          0                    0.99999997923280526 -6.4184768611141863e-25 -1.4707976899889071e-24
              184880.22984180314          3.8200045694955516e-16      -4.4056630299927277e-19        2                              0                                 1                                1                             0                                3                              2.9572233990647931e-18             4.2343589078378896                     4.2343589078378896                       4.2343589078378896             0                    0                    0                    0                    0                    3.7904323355049037e-16    2                            2                          0                    0.99972578844843907 -8.1918598888413334e-23 -1.7335339513075657e-22
              115239.90200375697          3.8144356307564032e-16      -5.5689387391486578e-19        2                              1                                 1                                1                             0                                4                              9.8162705835572696e-19             2.4445662495327625                     4.2343589078378896                       4.2343589078378896             0                    0                    0                    0                    0                    3.8046193601728457e-16    3                            3                          0                    0.99990896987560685 -4.500368331962688e-23 -9.1870955287731706e-23
              116863.90944349415          3.8083205125584013e-16      -6.1151181980017312e-19        3                              1                                 1                                2                             1                                5                              1.4806111536362313e-18             3.1892695811362275                     4.2343589078378896                       4.2343589078378896             0                    0                    0                    0                    0                    3.7935144010220391e-16    4                            4                          0                    0.99970533389462823 -1.2434497875801754e-22 -3.3885592744452099e-22
              116561.45563014633          3.5284030190679053e-16      -2.7991749349049594e-17        3                              1                                 2                                3                             0                                6                              1.4806111536362313e-18             3.1892695811362275                     3.1892695811362275                       4.2343589078378896            -2.7991749349049594e-17  10                   10                   0                    0                    3.7935144010220391e-16    5                            0                          1                    0.99970533389462823 -1.2434497875801754e-22 -3.3885592744452099e-22
              89399.750676781812          3.5249840274915235e-16      -3.4189915763820902e-19        4                              2                                 2                                3                             0                                8                              1.1389745629552774e-18             2.7489405672048259                     3.1892695811362275                       4.2343589078378896            -2.7991220467204821e-17  10                   10                   0                    0                    3.7935064865340188e-16    6                            1                          1                    0.99968644525731498 -1.4837337707669056e-22 -4.3425580591766838e-22
              69498.370102425804          3.5216598689114482e-16      -3.3241585800752839e-19        5                              2                                 2                                4                             1                                9                              7.8718937496624521e-19             2.5481111312663112                     3.1892695811362275                       4.2343589078378896            -2.7988522618366268e-17  10                   10                   0                    0                    3.7936732013454484e-16    7                            2                          1                    0.99959009351308081 -2.7152883116546686e-22 -4.9341483280126596e-22
              133340.99335606172          3.5211294571311387e-16      -5.3041178030927621e-20        6                              2                                 2                                4                             1                                10                             6.8097813976301768e-19             2.5060211758944266                     3.1892695811362275                       4.2343589078378896            -2.7983146794517299e-17  10                   10                   0                    0                    3.7941511436786816e-16    8                            3                          1                    0.99939809980418925 -4.4678546576700946e-22 -5.5860078467568594e-22
              108484.76827693605          3.5208427932782071e-16      -2.8666385293154145e-20        6                              3                                 2                                4                             1                                11                             6.7581693784200848e-19             2.4645608982230538                     3.1892695811362275                       4.2343589078378896            -2.798540037907063e-17  10                   10                   0                    0                    3.7939386276904933e-16    9                            4                          1                    0.99947858496680808 -4.4853010194856327e-22 -5.4971900047868468e-22
              108172.51580485875          3.2409887894875009e-16      -2.798540037907063e-17        6                              3                                 3                                5                             0                                12                             6.7581693784200848e-19             2.4645608982230538                     2.4645608982230538                       4.2343589078378896            -5.5970800758141261e-17  20                   20                   0                    0                    3.7939386276904933e-16    10                           0                          2                    0.99947858496680808 -4.4853010194856327e-22 -5.4971900047868468e-22
              69806.141211201713          3.2386774902142385e-16      -2.311299273262403e-19        7                              4                                 3                                5                             0                                14                             8.2473586085931443e-19             2.5784286972731834                     2.5784286972731834                       4.2343589078378896            -5.5966226867966666e-17  20                   20                   0                    0                    3.7900924002853118e-16    11                           1                          2                    0.99939690835654749 -4.0824486648359326e-22 -6.0348551552838863e-22
              70253.955521532887          3.2363164202217215e-16      -2.3610699925167914e-19        8                              4                                 3                                6                             1                                15                             1.1376300952766701e-18             3.1217774309805169                     3.1217774309805169                       4.2343589078378896            -5.5956621442331776e-17  20                   20                   0                    0                    3.7845063336922729e-16    12                           2                          2                    0.9992253828987816  -4.3568323552075791e-22 -7.2323099889867342e-22
              84843.740263754298          3.2359203342115853e-16      -3.9608601013649319e-20        9                              4                                 3                                6                             1                                16                             1.8161477616697562e-18             3.855704339026822                      3.855704339026822                        4.2343589078378896            -5.5941088673243554e-17  20                   20                   0                    0                    3.777169743327323e-16    13                           3                          2                    0.99894801202220618 -4.6883132297028038e-22 -7.1339759496627911e-22
              77360.558992122067          3.2356961105052382e-16      -2.2422370634720751e-20        9                              5                                 3                                6                             1                                17                             1.5266774015220169e-18             3.5799326103876368                     3.855704339026822                        4.2343589078378896            -5.5947274274457902e-17  20                   20                   0                    0                    3.7799020792345971e-16    14                           4                          2                    0.99905846918674823 -4.3806228485924029e-22 -6.8453179632602513e-22
              76363.290994535695          2.9559597391329484e-16      -2.7973637137228951e-17        9                              5                                 4                                7                             0                                18                             1.5266774015220169e-18             3.5799326103876368                     3.5799326103876368                       4.2343589078378896            -8.3920911411686866e-17  30.000000000000004   30.000000000000004   0                    0                    3.7799020792345971e-16    15                           0                          3                    0.99905846918674823 -4.3806228485924029e-22 -6.8453179632602513e-22
              60587.561077970633          2.9539393822824285e-16      -2.0203568505200297e-19        10                             6                                 4                                7                             0                                20                             1.1997841733955247e-18             3.1305617594115649                     3.5799326103876368                       4.2343589078378896            -8.3914703880800887e-17  30.000000000000004   30.000000000000004   0                    0                    3.7810885793564819e-16    16                           1                          3                    0.99898457000953422 -4.9928315450285607e-22 -8.1997900533029416e-22
              74167.22277562604           2.9519550734245892e-16      -1.9843088578394111e-19        11                             6                                 4                                8                             1                                21                             9.1259608474916601e-19             3.021615046529508                      3.5799326103876368                       4.2343589078378896            -8.3896814547136314e-17  30.000000000000004   30.000000000000004   0                    0                    3.7817972580484605e-16    17                           2                          3                    0.99877160175162272 -6.1506355564233676e-22 -9.7477581562088751e-22
              82601.230246319741          2.9518991770829042e-16      -5.5896341684615809e-21        12                             7                                 4                                8                             1                                23                             8.8758604146078476e-19             3.0219384939046017                     3.5799326103876368                       4.2343589078378896            -8.3892819756112142e-17  30.000000000000004   30.000000000000004   0                    0                    3.7819515142294183e-16    18                           3                          3                    0.99872404471562071 -7.0768787655392119e-22 -9.8587804586713897e-22
              76132.235147684725          2.9465037413374079e-16      -5.3954357454965746e-19        13                             7                                 4                                9                             2                                24                             8.1163738515719605e-19             3.219388526608697                      3.5799326103876368                       4.2343589078378896            -8.3815121518433098e-17  30.000000000000004   30.000000000000004   0                    0                    3.7765385826701669e-16    19                           4                          3                    0.99779906569563193 -1.1314758653822666e-21 -1.3614506347689062e-21
              73976.396496848             2.667120002942631e-16      -2.7938373839477695e-17        13                             7                                 5                                10                            0                                25                             8.1163738515719605e-19             3.219388526608697                      3.219388526608697                        4.2343589078378896            -1.1175349535791078e-16  40                   40                   0                    0                    3.7765385826701669e-16    20                           0                          4                    0.99779906569563193 -1.1314758653822666e-21 -1.3614506347689062e-21
              58910.994968651641          2.6648140549317255e-16      -2.3059480109051606e-19        14                             8                                 5                                10                            0                                27                             1.1827410766679303e-18             3.4065428153982791                     3.4065428153982791                       4.2343589078378896            -1.1173606361943345e-16  40                   40                   0                    0                    3.7703472803593812e-16    21                           1                          4                    0.9976434251735129  -8.9706020389712655e-22 -1.3481279584734043e-21
              48547.22813408354           2.6634624330504578e-16      -1.3516218812679711e-19        15                             8                                 5                                11                            1                                28                             1.4415374713729796e-18             3.4487165213694291                     3.4487165213694291                       4.2343589078378896            -1.1170686731659373e-16  40                   40                   0                    0                    3.7661157315026651e-16    22                           2                          4                    0.99738274389815806 -1.0359966852645033e-21 -1.6615280579961628e-21
              57166.844577176962          2.6634313830237896e-16      -3.1050026667930133e-21        16                             9                                 5                                11                            1                                30                             1.5065396479119565e-18             3.5034598278258144                     3.5034598278258144                       4.2343589078378896            -1.1170141691613852e-16  40                   40                   0                    0                    3.7653801557060554e-16    23                           3                          4                    0.9973340796083795  -9.6589403142388616e-22 -1.4531233359450977e-21
              57162.524626975879          2.6613272143299902e-16      -2.1041686937997614e-19        17                             9                                 5                                12                            2                                31                             1.5450940460711351e-18             3.5639352672617672                     3.5639352672617672                       4.2343589078378896            -1.1163906586237012e-16  40                   40                   0                    0                    3.7622669324929796e-16    24                           4                          4                    0.99677737377116149 -1.3126008216853994e-21 -1.6431300764452317e-21
              55241.471839530641          2.3822295496740645e-16      -2.7909766465592529e-17        17                             9                                 6                                13                            0                                32                             1.5450940460711351e-18             3.5639352672617672                     3.5639352672617672                       4.2343589078378896            -1.3954883232796263e-16  50.000000000000007   50.000000000000007   0                    0                    3.7622669324929796e-16    25                           0                          5                    0.99677737377116149 -1.3126008216853994e-21 -1.6431300764452317e-21
              38586.779190867579          2.3813652005451166e-16      -8.6434912894811049e-20        18                             10                                6                                13                            0                                34                             1.4183363012776822e-18             3.5458335786157722                     3.5639352672617672                       4.2343589078378896            -1.3953610357498448e-16  50.000000000000007   50.000000000000007   0                    0                    3.7625428732821846e-16    26                           1                          5                    0.99668645410703194 -1.1698578613764507e-21 -1.8264754787976147e-21
              35758.270754607962          2.3804675084533475e-16      -8.9769209176919728e-20        19                             10                                6                                14                            1                                35                             1.2310331616202726e-18             3.500512906774528                      3.5639352672617672                       4.2343589078378896            -1.3950722057898609e-16  50.000000000000007   50.000000000000007   0                    0                    3.7632293826270054e-16    27                           2                          5                    0.99648014699275755 -1.2294926981277448e-21 -1.7820665578126085e-21
              38157.578013569771          2.3803868323961563e-16      -8.0676057191139555e-21        20                             11                                6                                14                            1                                37                             1.1817083702900401e-18             3.4823907923112825                     3.5639352672617672                       4.2343589078378896            -1.3949497499350518e-16  50.000000000000007   50.000000000000007   0                    0                    3.7635194986283078e-16    28                           3                          5                    0.99639267852503688 -1.2225141534015295e-21 -1.8823038366073368e-21
              45796.975432995685          2.378878195921529e-16      -1.5086364746273044e-19        21                             11                                6                                15                            2                                38                             1.0637940979605684e-18             3.6008946167017362                     3.6008946167017362                       4.2343589078378896            -1.3940091845439596e-16  50.000000000000007   50.000000000000007   0                    0                    3.7622494394858826e-16    29                           4                          5                    0.99572084610282807 -1.1508254666685908e-21 -1.9165621470814847e-21
# Table End
