# ODT 1.0
# Table Start
# Title: mmArchive Data Table, Wed Aug 17 23:55:38 EDT 2011
# Columns: {Oxs_CGEvolve::Max mxHxm} {Oxs_CGEvolve::Total energy} {Oxs_CGEvolve::Delta E} {Oxs_CGEvolve::Bracket count} {Oxs_CGEvolve::Line min count} {Oxs_CGEvolve::Conjugate cycle count} {Oxs_CGEvolve::Cycle count} {Oxs_CGEvolve::Cycle sub count} {Oxs_CGEvolve::Energy calc count} Oxs_UniformExchange::Energy {Oxs_UniformExchange::Max Spin Ang} {Oxs_UniformExchange::Stage Max Spin Ang} {Oxs_UniformExchange::Run Max Spin Ang} Oxs_UZeeman::Energy  Oxs_UZeeman::B       Oxs_UZeeman::Bx      Oxs_UZeeman::By      Oxs_UZeeman::Bz      Oxs_Demag::Energy    Oxs_MinDriver::Iteration {Oxs_MinDriver::Stage iteration} Oxs_MinDriver::Stage Oxs_MinDriver::mx    Oxs_MinDriver::my    Oxs_MinDriver::mz   
# Units:              A/m                         J                          J                         {}                             {}                                {}                               {}                            {}                               {}                              J                              deg                                    deg                                      deg                            J                 mT                   mT                   mT                   mT                     J                       {}                           {}                         {}                 {}                   {}                   {}           
              185486.68910236505          3.8247185152503768e-16       3.8247185152503768e-16        0                              0                                 1                                1                             1                                1                              0                               0                                      0                                        0                              0                    0                    0                    0                    0                    3.8247185152503768e-16    0                            0                          0                    1                    0                    0                  
              183736.71036078423          3.8244102325172821e-16      -3.0828273309470355e-20        1                              0                                 1                                1                             1                                2                              2.2393436545814949e-22             0.036959716493375337                    0.036959716493375337                      0.036959716493375337            0                    0                    0                    0                    0                    3.8244079931736273e-16    1                            1                          0                    0.99999997923280826 -1.7002272605688111e-22  3.264690105554889e-21
              171484.90595379021          3.8223836151562453e-16      -2.0266173610368002e-19        2                              0                                 1                                1                             1                                3                              1.433169785119971e-20             0.29567237779406952                    0.29567237779406952                      0.29567237779406952            0                    0                    0                    0                    0                    3.8222402981777337e-16    2                            2                          0                    0.99999867090977379  1.2180732613030289e-21  2.7173184337568401e-20
              171429.35209692098          3.5423839873015098e-16      -2.7999962785473545e-17        2                              0                                 2                                2                             2                                4                              1.433169785119971e-20             0.29567237779406952                    0.29567237779406952                      0.29567237779406952           -2.799996278547352e-17  10                   10                   0                    0                    3.8222402981777337e-16    3                            0                          1                    0.99999867090977379  1.2180732613030289e-21  2.7173184337568401e-20
              169798.93189923625          3.5421239587202854e-16      -2.6002858122441533e-20        3                              0                                 2                                2                             0                                5                              1.7688613663989614e-20             0.32961177834290933                    0.32961177834290933                      0.32961177834290933           -2.7999953407685897e-17  10                   10                   0                    0                    3.8219466066605045e-16    4                            1                          1                    0.99999833598878185  3.2684965844964608e-21  3.1954121888182795e-20
              158384.68521267481          3.5404089092465169e-16      -1.7150494737685016e-19        4                              0                                 2                                2                             0                                6                              5.1136817821156886e-20             0.56719564459833482                    0.56719564459833482                      0.56719564459833482           -2.7999858057115739e-17  10                   10                   0                    0                    3.8198961216394623e-16    5                            2                          1                    0.99999493061126477  1.5489831639570183e-20  5.1037269648596913e-20
              158273.58208159168          3.2604103286753595e-16      -2.7999858057115746e-17        4                              0                                 3                                3                             1                                7                              5.1136817821156886e-20             0.56719564459833482                    0.56719564459833482                      0.56719564459833482           -5.5999716114231479e-17  20                   20                   0                    0                    3.8198961216394623e-16    6                            0                          2                    0.99999493061126477  1.5489831639570183e-20  5.1037269648596913e-20
              156768.43593420135          3.2601877631661644e-16      -2.225655091950842e-20        5                              0                                 3                                3                             0                                8                              5.6590683026620704e-20             0.59801383290739396                    0.59801383290739396                      0.59801383290739396           -5.5999682064386922e-17  20                   20                   0                    0                    3.8196186769797673e-16    7                            1                          2                    0.99999432257835019  1.8372605024654019e-20  5.2945584424638323e-20
              146231.739378692            3.2587139513680254e-16      -1.4738117981390202e-19        6                              0                                 3                                3                             0                                9                              1.0264221267634298e-19             0.81375816506429521                    0.81375816506429521                      0.81375816506429521           -5.5999388663316522e-17  20                   20                   0                    0                    3.8176814158744268e-16    8                            2                          2                    0.99998908327350189  5.1037269648596913e-20  7.0526441829445378e-20
              146065.09747155514          2.9787170080514421e-16      -2.7999694331658323e-17        6                              0                                 4                                4                             1                                10                             1.0264221267634298e-19             0.81375816506429521                    0.81375816506429521                      0.81375816506429521           -8.3999082994974783e-17  30.000000000000007   30.000000000000007   0                    0                    3.8176814158744268e-16    9                            0                          3                    0.99998908327350189  5.1037269648596913e-20  7.0526441829445378e-20
              144688.65940401974          2.9785233302345237e-16      -1.9367781691839773e-20        7                              0                                 4                                4                             0                                11                             1.0938317902882939e-19             0.84141385901479238                    0.84141385901479238                      0.84141385901479238           -8.3999011561405877e-17  30.000000000000007   30.000000000000007   0                    0                    3.8174196140582942e-16    10                           1                          3                    0.99998823287389094  6.6791017161449416e-20  6.7156439139840323e-20
              135053.4327229434           2.9772349284510179e-16      -1.2884017835058011e-19        8                              0                                 4                                4                             0                                12                             1.6278276825946241e-19             1.0350297329959939                     1.0350297329959939                       1.0350297329959939            -8.3998433704866255e-17  30.000000000000007   30.000000000000007   0                    0                    3.815591437817086e-16    11                           2                          3                    0.99998135362935869  8.3356813515170608e-20  8.4574886776473639e-20
              134831.27036462477          2.6972401494347973e-16      -2.799947790162206e-17        8                              0                                 5                                5                             1                                13                             1.6278276825946241e-19             1.0350297329959939                     1.0350297329959939                       1.0350297329959939            -1.1199791160648832e-16  40                   40                   0                    0                    3.815591437817086e-16    12                           0                          4                    0.99998135362935869  8.3356813515170608e-20  8.4574886776473639e-20
              133584.19688768909          2.6970685628549023e-16      -1.7158657989499543e-20        9                              0                                 5                                5                             0                                14                             1.7018561282082351e-19             1.0595517951137421                     1.0595517951137421                       1.0595517951137421            -1.1199779164300187e-16  40                   40                   0                    0                    3.8153446231567125e-16    13                           1                          4                    0.99998028252678128  8.9244167611468584e-20  9.3263809373768583e-20
              124854.80740245932          2.6959213967106982e-16      -1.1471661442041348e-19        10                             0                                 5                                5                             0                                15                             2.2688985292270644e-19             1.2312408362918157                     1.2312408362918157                       1.2312408362918157            -1.1199685237607825e-16  40                   40                   0                    0                    3.8136210219422535e-16    14                           2                          4                    0.99997189621499316  1.3922577376693621e-19  7.673861546209082e-20
              124577.15216001311          2.4159292657705026e-16      -2.7999213094019564e-17        10                             0                                 6                                6                             1                                16                             2.2688985292270644e-19             1.2312408362918157                     1.2312408362918157                       1.2312408362918157            -1.3999606547009782e-16  50                   50                   0                    0                    3.8136210219422535e-16    15                           0                          5                    0.99997189621499316  1.3922577376693621e-19  7.673861546209082e-20
              123456.98322049119          2.415774414276669e-16      -1.5485149383357949e-20        11                             0                                 6                                6                             0                                17                             2.3448206873131651e-19             1.2527336424490563                     1.2527336424490563                       1.2527336424490563            -1.3999588651611223e-16  50                   50                   0                    0                    3.8133884587504786e-16    16                           1                          5                    0.99997061797221853  1.1096647410470593e-19  6.9836200314706993e-20
              115615.89700796893          2.4147337660163055e-16      -1.0406482603634972e-19        12                             0                                 6                                6                             0                                18                             2.9145354720572904e-19             1.4032734101409869                     1.4032734101409869                       1.4032734101409869            -1.3999451240842445e-16  50                   50                   0                    0                    3.8117643546284931e-16    17                           2                          5                    0.99996080291731426  1.9091268248822807e-19  7.2921985910008e-20
# Table End
