# ODT 1.0
# Table Start
# Title: mmArchive Data Table, Wed Jun 11 15:39:06 EDT 2014
# Columns: {Oxs_CGEvolve:evolve:Max mxHxm} {Oxs_CGEvolve:evolve:Total energy} {Oxs_CGEvolve:evolve:Delta E} {Oxs_CGEvolve:evolve:Bracket count} {Oxs_CGEvolve:evolve:Line min count} {Oxs_CGEvolve:evolve:Conjugate cycle count} {Oxs_CGEvolve:evolve:Cycle count} {Oxs_CGEvolve:evolve:Cycle sub count} {Oxs_CGEvolve:evolve:Energy calc count} Oxs_UniaxialAnisotropy::Energy Oxs_UniformExchange::Energy {Oxs_UniformExchange::Max Spin Ang} {Oxs_UniformExchange::Stage Max Spin Ang} {Oxs_UniformExchange::Run Max Spin Ang} Oxs_UZeeman::Energy  Oxs_UZeeman::B       Oxs_UZeeman::Bx      Oxs_UZeeman::By      Oxs_UZeeman::Bz      Oxs_Demag::Energy    Oxs_MinDriver::Iteration {Oxs_MinDriver::Stage iteration} Oxs_MinDriver::Stage Oxs_MinDriver::mx    Oxs_MinDriver::my    Oxs_MinDriver::mz   
# Units:                 A/m                               J                                J                               {}                                   {}                                      {}                                     {}                                  {}                                     {}                                  J                             J                              deg                                    deg                                      deg                            J                 mT                   mT                   mT                   mT                     J                       {}                           {}                         {}                 {}                   {}                   {}           
                 175069.77996475488                3.5435697571806853e-17             3.5435697571806853e-17              0                                    0                                       1                                      1                                   0                                      1                                   5.4000000000000002e-19          0                               0                                      0                                        0                              0                    0                    0                    0                    0                    3.4895697571806848e-17    0                            0                          0                    0                    0                    0                  
                 173885.25344406214                3.5424120339430086e-17            -1.157723237676266e-20              1                                    0                                       1                                      1                                   0                                      2                                   5.3999600368249558e-19          4.401633839768898e-23             0.058725196059285209                    0.058725196059285209                      0.058725196059285209            0                    0                    0                    0                    0                    3.4884080319409193e-17    1                            1                          0                   -4.8186763221577972e-25  4.6629367034256572e-21  3.9618197224747473e-16
                 240434.90749435133                3.5128921106029514e-17            -2.95199233400574e-19              2                                    0                                       1                                      1                                   0                                      3                                   5.3997994562498901e-19          1.7084310458125786e-18             11.605116712643122                     11.605116712643122                       11.605116712643122             0                    0                    0                    0                    0                    3.2880510114591949e-17    2                            2                          0                   -2.8834959111792261e-22  1.9635717511833227e-12  2.9940148400792209e-09
                 132086.50510393293                3.4774119524566764e-17            -3.5480158146274869e-19              2                                    1                                       1                                      1                                   0                                      4                                   5.3980088001166556e-19          5.7050469379871699e-19             6.6925793386968113                     11.605116712643122                       11.605116712643122             0                    0                    0                    0                    0                    3.3663813950756385e-17    3                            3                          0                   -1.0022846750088219e-23  2.2275314628641655e-13  5.822767375100496e-10
                 106677.98739520051                3.406321676958096e-17            -7.109027549858045e-19              3                                    1                                       1                                      2                                   1                                      5                                   5.4066000809154046e-19          7.6256440372430917e-19             5.4775491616538279                     11.605116712643122                       11.605116712643122             0                    0                    0                    0                    0                    3.2759992357765109e-17    4                            4                          0                   -6.1679056923619807e-24 -6.9134155456639245e-10  2.240240641772969e-07
                 137051.63716245384                3.4063216769780068e-17             1.9910636914001969e-28              3                                    1                                       2                                      3                                   0                                      6                                   5.4066000809154046e-19          7.6256440372430917e-19             5.4775491616538279                     5.4775491616538279                       11.605116712643122             1.9910636771289608e-28  50.002499937503131   50.000000000000007   0.5                  0                    3.2759992357765109e-17    5                            0                          1                   -6.1679056923619807e-24 -6.9134155456639245e-10  2.240240641772969e-07
                 293304.07494870515                3.3356444553493733e-17            -7.0677221628633665e-19              4                                    1                                       2                                      3                                   0                                      7                                   5.4255348469792343e-19          1.168735130385006e-18             5.7486282856926669                     5.7486282856926669                       11.605116712643122            -1.0108350319059865e-18  50.002499937503131   50.000000000000007   0.5                  0                    3.265599097031679e-17    6                            1                          1                    0.035098422415209676  1.6192637068598371e-06  8.6774023130081476e-07
                 192381.54058707625                3.3239507233923492e-17            -1.1693731957023877e-19              4                                    2                                       2                                      3                                   0                                      8                                   5.4184833876532287e-19          7.7507648604984002e-19             5.2425949515697878                     5.7486282856926669                       11.605116712643122            -7.3466861743327502e-19  50.002499937503131   50.000000000000007   0.5                  0                    3.2657251026541601e-17    7                            2                          1                    0.02550931557937975  1.14148311845353e-06  6.9121521131498155e-07
                 192408.63980206236                3.1045433415948927e-17            -2.1940738179745648e-18              5                                    2                                       2                                      4                                   1                                      9                                   5.4976876770176802e-19          1.0520726393835833e-18             4.3814280268457777                     5.7486282856926669                       11.605116712643122            -2.7222797067579728e-18  50.002499937503131   50.000000000000007   0.5                  0                    3.2165871715621548e-17    8                            3                          1                    0.094523533853188443  6.7075907820870163e-06  1.8967702250476031e-06
                 202245.51584157982                2.9971091482595882e-17            -1.0743419333530451e-18              6                                    3                                       3                                      5                                   0                                      11                                  5.519413605566556e-19          1.1322246032659433e-18             4.8989610516503044                     5.7486282856926669                       11.605116712643122            -3.13517375230049e-18  50.002499937503131   50.000000000000007   0.5                  0                    3.1422099271073774e-17    9                            4                          1                    0.1088601020793038   9.7653352080627289e-06  2.0009388308517202e-06
                 222484.70421574923                2.6835917730295391e-17            -3.13517375230049e-18              6                                    3                                       4                                      6                                   0                                      12                                  5.519413605566556e-19          1.1322246032659433e-18             4.8989610516503044                     4.8989610516503044                       11.605116712643122            -6.27034750460098e-18  100.00499987500626   100.00000000000001   1                    0                    3.1422099271073774e-17    10                           0                          2                    0.1088601020793038   9.7653352080627289e-06  2.0009388308517202e-06
                 578892.1750332386                 2.5567678527098123e-17            -1.2682392031972704e-18              7                                    3                                       4                                      6                                   0                                      13                                  5.5736351805304466e-19          2.1705684473989796e-18             8.6860293015793442                     8.6860293015793442                       11.605116712643122            -8.289551393827475e-18  100.00499987500626   100.00000000000001   1                    0                    3.1129297955473573e-17    11                           1                          2                    0.14391562148246448  2.0132704028406509e-05  2.1062188352078056e-06
                 439087.48719560244                2.549173978145836e-17            -7.5938745639761144e-20              7                                    4                                       4                                      6                                   0                                      14                                  5.562151038121033e-19          1.6576602340367529e-18             6.8783316871446329                     8.6860293015793442                       11.605116712643122            -7.903173828430027e-18  100.00499987500626   100.00000000000001   1                    0                    3.1181038272039531e-17    12                           2                          2                    0.13720769936126714  1.7960453191847135e-05  2.0862964436901889e-06
                 374137.5696076997                 1.9318629289781935e-17            -6.1731104916764276e-18              8                                    4                                       4                                      7                                   1                                      15                                  5.7909194697724737e-19          2.34216746024359e-18             7.8628705561270484                     8.6860293015793442                       11.605116712643122            -1.3858417537059459e-17  100.00499987500626   100.00000000000001   1                    0                    3.0255787419620557e-17    13                           3                          2                    0.24059686818403675  6.5850102327851109e-05  2.3753655418796073e-06
                 371062.49044779036                1.8970070360003237e-17            -3.485589297786969e-19              9                                    4                                       4                                      7                                   1                                      16                                  5.8083646590084451e-19          2.411239495343686e-18             7.9776540543343106                     8.6860293015793442                       11.605116712643122            -1.421709224776611e-17  100.00499987500626   100.00000000000001   1                    0                    3.0195086646524817e-17    14                           4                          2                    0.24682382266292696  6.9552745685405866e-05  2.3923370947546293e-06
                 334112.94201443269                3.3187142576578586e-17             1.4217072216575351e-17              9                                    4                                       5                                      8                                   0                                      17                                  5.8083646590084451e-19          2.411239495343686e-18             7.9776540543343106                     7.9776540543343106                       11.605116712643122            -2.0031190757396891e-23  0.5                  0                    0.5                  0                    3.0195086646524817e-17    15                           0                          3                    0.24682382266292696  6.9552745685405866e-05  2.3923370947546293e-06
                 73768.860245343458                3.2255426370308884e-17            -9.317162062697012e-19              10                                   5                                       5                                      8                                   0                                      19                                  5.8112843071348916e-19          1.5027625052640357e-18             5.2850327692991534                     7.9776540543343106                       11.605116712643122            -2.0979236905294254e-23  0.5                  0                    0.5                  0                    3.0171556413568265e-17    16                           1                          3                    0.24755868616903492  7.2844572587827259e-05  2.4096980902430633e-06
                 51355.103643938266                3.2167453915939699e-17            -8.7972454369186951e-20              11                                   5                                       5                                      9                                   1                                      20                                  5.8156190316956404e-19          1.4438178999017911e-18             5.0542704742162927                     7.9776540543343106                       11.605116712643122            -2.2251691051362073e-23  0.5                  0                    0.5                  0                    3.0142096364559397e-17    17                           2                          3                    0.24851039350992876  7.7262816150562734e-05  2.4314328219514705e-06
                 50127.823517205579                3.2163037869411751e-17            -4.4160465279513941e-21              12                                   6                                       5                                      9                                   1                                      22                                  5.81684924040638e-19          1.4465796645165445e-18             5.0866840972917267                     7.9776540543343106                       11.605116712643122            -2.2610992259708508e-23  0.5                  0                    0.5                  0                    3.0134795891846828e-17    18                           3                          3                    0.24877474633256172  7.8510389790654539e-05  2.4374849560839766e-06
                 48656.094167858711                3.2082440033774531e-17            -8.0597835637217755e-20              13                                   6                                       5                                      10                                  2                                      23                                  5.8269491325138832e-19          1.4879097111233735e-18             5.2762458396046821                     7.9776540543343106                       11.605116712643122            -2.5520609291353191e-23  0.5                  0                    0.5                  0                    3.0011860930009061e-17    19                           4                          3                    0.25096189483959619  8.8613226706087456e-05  2.4828593273860161e-06
                 101198.76447463765                4.6537870697144567e-17             1.4455430663370033e-17              13                                   6                                       6                                      11                                  0                                      24                                  5.8269491325138832e-19          1.4879097111233735e-18             5.2762458396046821                     5.2762458396046821                       11.605116712643122             1.445540514276074e-17  100.00000000000001  -100.00000000000001   0                    0                    3.0011860930009061e-17    20                           0                          4                    0.25096189483959619  8.8613226706087456e-05  2.4828593273860161e-06
                 103848.66909915245                4.516352258015404e-17            -1.3743481169905229e-18              14                                   6                                       6                                      11                                  0                                      25                                  5.7689683143309092e-19          1.6109577749827953e-18             5.454388013059245                      5.454388013059245                        11.605116712643122             1.3012124094969519e-17  100.00000000000001  -100.00000000000001   0                    0                    2.9963543878768638e-17    21                           1                          4                    0.22590493220433189  7.9944009284086431e-05  2.53109566708031e-06
                 316636.27783260576                4.1070953641776137e-17            -4.092568938377906e-18              15                                   6                                       6                                      11                                  0                                      26                                  5.6168596975952118e-19          2.9770229019622156e-18             8.5374257461214089                     8.5374257461214089                       11.605116712643122             7.6502251045737694e-18  100.00000000000001  -100.00000000000001   0                    0                    2.9882019665480628e-17    22                           2                          4                    0.13281640806551681  4.9460588472250392e-05  2.6789698987279049e-06
                 156382.54890094412                3.9598286465170193e-17            -1.4726671766059428e-18              16                                   7                                       7                                      12                                  0                                      28                                  5.6013394013142206e-19          2.1378134421368549e-18             6.6047905496943953                     8.5374257461214089                       11.605116712643122             6.8994842356421897e-18  100.00000000000001  -100.00000000000001   0                    0                    3.0000854847259723e-17    23                           3                          4                    0.11978271242434356  4.577719623924153e-05  2.6879074036634292e-06
                 165442.50707085326                3.8330095274881467e-17            -1.2681911902887255e-18              17                                   7                                       7                                      13                                  1                                      29                                  5.5783217637538501e-19          2.0684843123259875e-18             6.5041613038370087                     8.5374257461214089                       11.605116712643122             5.5457168446627274e-18  100.00000000000001  -100.00000000000001   0                    0                    3.0158061941517365e-17    24                           4                          4                    0.09627980633095011  3.9449059363740575e-05  2.7014884532434608e-06
                 112627.46818944096                3.278437843021874e-17            -5.5457168446627274e-18              17                                   7                                       8                                      14                                  0                                      30                                  5.5783217637538501e-19          2.0684843123259875e-18             6.5041613038370087                     6.5041613038370087                       11.605116712643122             0                    0                    0                    0                    0                    3.0158061941517365e-17    25                           0                          5                    0.09627980633095011  3.9449059363740575e-05  2.7014884532434608e-06
                 105347.53659007589                3.270094412654508e-17            -8.3434303673662114e-20              18                                   7                                       8                                      14                                  0                                      31                                  5.5815813049880258e-19          2.0998537361579587e-18             6.8878420096743644                     6.8878420096743644                       11.605116712643122             0                    0                    0                    0                    0                    3.0042932259888317e-17    26                           1                          5                    0.097909816638893268  3.8322300207178097e-05  2.7101347179924801e-06
                 38591.358302959612                3.2607745697524316e-17            -9.3198429020760937e-20              18                                   8                                       8                                      14                                  0                                      32                                  5.5801524088167216e-19          1.9643095497520263e-18             6.2721230202696745                     6.8878420096743644                       11.605116712643122             0                    0                    0                    0                    0                    3.0085420906890617e-17    27                           2                          5                    0.097227084431446814  3.8800556775301063e-05  2.7065954234335209e-06
                 27351.331818090548                3.2583152737510996e-17            -2.4592960013317637e-20              19                                   8                                       8                                      15                                  1                                      33                                  5.5827372401536143e-19          1.9813771032526698e-18             6.3107768498261212                     6.8878420096743644                       11.605116712643122             0                    0                    0                    0                    0                    3.0043501910242967e-17    28                           3                          5                    0.098504303627370324  3.7930490932366731e-05  2.7128388192746182e-06
                 27194.752918119084                3.2583093904183882e-17            -5.8833327118913703e-23              20                                   9                                       8                                      15                                  1                                      35                                  5.5828717233917707e-19          1.9833966506465503e-18             6.312761923509437                      6.8878420096743644                       11.605116712643122             0                    0                    0                    0                    0                    3.0041410081198152e-17    29                           4                          5                    0.098569850770779219  3.7884974159240557e-05  2.7131547768714821e-06
                 34780.096703992756                3.2582548360555987e-17            -5.4554362789306296e-22              20                                   9                                       9                                      16                                  0                                      36                                  5.5828717233917707e-19          1.9833966506465503e-18             6.312761923509437                      6.312761923509437                        11.605116712643122            -5.4554362789306418e-22  25.000000000000004   0                    25.000000000000004   0                    3.0041410081198152e-17    30                           0                          6                    0.098569850770779219  3.7884974159240557e-05  2.7131547768714821e-06
                 33692.232099345572                3.2565037785297196e-17            -1.7510575258793546e-20              21                                   9                                       9                                      16                                  0                                      37                                  5.585946701000914e-19          1.9890205349320004e-18             6.3819473412534879                     6.3819473412534879                       11.605116712643122            -3.6012075062517797e-21  25.000000000000004   0                    25.000000000000004   0                    3.0021023787771356e-17    31                           1                          6                    0.10004085052936444  0.00025008385460081797  2.7181669728466299e-06
                 30999.154207498235                3.256499082752704e-17            -4.6957770154404626e-23              21                                   10                                      9                                      16                                  0                                      38                                  5.5857936867793544e-19          1.9878692904685907e-18             6.3785453943214314                     6.3819473412534879                       11.605116712643122            -3.4499210199876826e-21  25.000000000000004   0                    25.000000000000004   0                    3.0021992089400503e-17    32                           2                          6                    0.099968566536081452  0.0002395778486102557  2.7179248459655274e-06
                 29905.340515675511                3.2521377202003104e-17            -4.3613625523932114e-20              22                                   10                                      9                                      17                                  1                                      39                                  5.5944635704806579e-19          2.0160873216251806e-18             6.5473568688260437                     6.5473568688260437                       11.605116712643122            -1.1831375954488469e-20  25.000000000000004   0                    25.000000000000004   0                    2.9957674899284351e-17    33                           3                          6                    0.10393268766771346  0.00082162333017281027  2.7325253141546261e-06
                 63237.872492997332                3.25111282117723e-17            -1.0248990230805063e-20              23                                   10                                      9                                      17                                  1                                      40                                  5.6122087219604405e-19          2.131472793812535e-18             6.8659521486889714                     6.8659521486889714                       11.605116712643122            -2.8498341829156909e-20  25.000000000000004   0                    25.000000000000004   0                    2.9846932887592882e-17    34                           4                          6                    0.11136730789269825  0.0019790515159136741  2.7558997697999041e-06
# Table End
