# ODT 1.0
# Table Start
# Title: mmArchive Data Table, Wed Aug 17 23:55:39 EDT 2011
# Columns: {Oxs_CGEvolve::Max mxHxm} {Oxs_CGEvolve::Total energy} {Oxs_CGEvolve::Delta E} {Oxs_CGEvolve::Bracket count} {Oxs_CGEvolve::Line min count} {Oxs_CGEvolve::Conjugate cycle count} {Oxs_CGEvolve::Cycle count} {Oxs_CGEvolve::Cycle sub count} {Oxs_CGEvolve::Energy calc count} Oxs_UniformExchange::Energy {Oxs_UniformExchange::Max Spin Ang} {Oxs_UniformExchange::Stage Max Spin Ang} {Oxs_UniformExchange::Run Max Spin Ang} Oxs_UZeeman::Energy  Oxs_UZeeman::B       Oxs_UZeeman::Bx      Oxs_UZeeman::By      Oxs_UZeeman::Bz      Oxs_Demag::Energy    Oxs_MinDriver::Iteration {Oxs_MinDriver::Stage iteration} Oxs_MinDriver::Stage Oxs_MinDriver::mx    Oxs_MinDriver::my    Oxs_MinDriver::mz   
# Units:              A/m                         J                          J                         {}                             {}                                {}                               {}                            {}                               {}                              J                              deg                                    deg                                      deg                            J                 mT                   mT                   mT                   mT                     J                       {}                           {}                         {}                 {}                   {}                   {}           
              2568869.6774022328          1.6133145111214223e-16       1.6133145111214223e-16        0                              0                                 1                                1                             1                                1                              1.4404901560213881e-16             99.355205224319022                     99.355205224319022                       99.355205224319022             0                    0                    0                    0                    0                    1.7282435510003419e-17    0                            0                          0                   -0.0051480753247218998  0.0049071934741157005  0.081179220698950297
              2567646.0277217925          1.611737176086606e-16      -1.5773350348163313e-19        1                              0                                 1                                1                             1                                2                              1.4389585989364815e-16             99.286595111201862                     99.355205224319022                       99.355205224319022             0                    0                    0                    0                    0                    1.7277857715012462e-17    1                            1                          0                   -0.0051490288010513285  0.0049081146043018871  0.081194559166110694
              2558986.0248574317          1.6007195686523927e-16      -1.1017607434213208e-18        2                              0                                 1                                1                             1                                3                              1.4282611095221248e-16             98.806355003050555                     99.355205224319022                       99.355205224319022             0                    0                    0                    0                    0                    1.72458459130268e-17    2                            2                          0                   -0.0051556769395970257  0.004914538300462885  0.081301526965906021
              2570055.0708692321          1.6024988958777865e-16       1.7793272253937463e-19        2                              0                                 2                                2                             2                                4                              1.4282611095221248e-16             98.806355003050555                     98.806355003050555                       99.355205224319022             1.7793272253937191e-19  20                   20                   0                    0                    1.72458459130268e-17    3                            0                          1                   -0.0051556769395970257  0.004914538300462885  0.081301526965906021
              2568818.4458971284          1.6009353836168643e-16      -1.5635122609221721e-19        3                              0                                 2                                2                             0                                5                              1.426743627445356e-16             98.737745639861544                     98.806355003050555                       99.355205224319022             1.7786432514913263e-19  20                   20                   0                    0                    1.7241311292001696e-17    4                            1                          1                   -0.0051536950958834815  0.0049154472488026468  0.081316764388146806
              2560067.6871362301          1.5900144794067314e-16      -1.0920904210132925e-18        4                              0                                 2                                2                             0                                6                              1.4161446044478552e-16             98.25751118453617                      98.806355003050555                       99.355205224319022             1.7738465445035251e-19  20                   20                   0                    0                    1.7209602841437274e-17    5                            2                          1                   -0.0051397964316861932  0.0049217860631344231  0.08142302732148253
              2571201.1636665328          1.5917883259512348e-16       1.7738465445033955e-19        4                              0                                 3                                3                             1                                7                              1.4161446044478552e-16             98.25751118453617                      98.25751118453617                        99.355205224319022             3.5476930890070501e-19  40                   40                   0                    0                    1.7209602841437274e-17    6                            0                          2                   -0.0051397964316861932  0.0049217860631344231  0.08142302732148253
              2569951.5927397907          1.5902365519783752e-16      -1.5517739728596366e-19        5                              0                                 3                                3                             0                                8                              1.4146411342153093e-16             98.188905902941386                     98.25751118453617                        99.355205224319022             3.5443016439230837e-19  40                   40                   0                    0                    1.7205111611914286e-17    7                            1                          2                   -0.0051348830029020014  0.0049226830059903651  0.081438163599390614
              2561110.2938624513          1.5793977648280148e-16      -1.0838787150360346e-18        6                              0                                 3                                3                             0                                9                              1.4041401363872325e-16             97.708700382824361                     98.25751118453617                        99.355205224319022             3.5205440668427713e-19  40                   40                   0                    0                    1.7173708437393955e-17    8                            2                          2                   -0.0051004637037013172  0.0049289381621146029  0.081543720831007221
              2572307.6289366391          1.5811580368614362e-16       1.7602720334213676e-19        6                              0                                 4                                4                             1                                10                             1.4041401363872325e-16             97.708700382824361                     97.708700382824361                       99.355205224319022             5.2808161002641576e-19  60.000000000000014   60.000000000000014   0                    0                    1.7173708437393955e-17    9                            0                          3                   -0.0051004637037013172  0.0049289381621146029  0.081543720831007221
              2571045.1455483572          1.5796159232538916e-16      -1.5421136075446238e-19        7                              0                                 4                                4                             0                                11                             1.4026506158812995e-16             97.640102511819236                     97.708700382824361                       99.355205224319022             5.272697442110993e-19  60.000000000000014   60.000000000000014   0                    0                    1.7169260993048104e-17    10                           1                          3                   -0.005092622316982519  0.0049298232728602351  0.081558755822870296
              2562113.5513805132          1.5688447125809177e-16      -1.0771210672973841e-18        8                              0                                 4                                4                             0                                12                             1.3922472089565126e-16             97.159949190806316                     97.708700382824361                       99.355205224319022             5.2158411421178702e-19  60.000000000000014   60.000000000000014   0                    0                    1.7138166248228727e-17    11                           2                          3                   -0.0050377077945042183  0.0049359959733519254  0.081663606222108789
              2573542.0308238333          1.5705833262949572e-16       1.7386137140394875e-19        8                              0                                 5                                5                             1                                13                             1.3922472089565126e-16             97.159949190806316                     97.159949190806316                       99.355205224319022             6.9544548561571574e-19  80                   80                   0                    0                    1.7138166248228727e-17    12                           0                          4                   -0.0050377077945042183  0.0049359959733519254  0.081663606222108789
              2572301.8322923807          1.5690489014007522e-16      -1.534424894204966e-19        9                              0                                 5                                5                             0                                14                             1.3907716731419345e-16             97.091366529917821                     97.159949190806316                       99.355205224319022             6.9395938165756573e-19  80                   80                   0                    0                    1.7133763444224211e-17    13                           1                          4                   -0.0050269426696334584  0.0049368693653113645  0.08167853877070104
              2563528.7542515458          1.5583314670954294e-16      -1.0717434305322799e-18        10                             0                                 5                                5                             0                                15                             1.3804660990727984e-16             96.611319961228119                     97.159949190806316                       99.355205224319022             6.8355329809945312e-19  80                   80                   0                    0                    1.7102983504163636e-17    14                           2                          4                   -0.0049515624862327343  0.0049429603952408025  0.081782674150192691
              2575307.3903046465          1.5600403503406781e-16       1.7088832452486179e-19        10                             0                                 6                                6                             1                                16                             1.3804660990727984e-16             96.611319961228119                     96.611319961228119                       99.355205224319022             8.5444162262431664e-19  100                  100                  0                    0                    1.7102983504163636e-17    15                           0                          5                   -0.0049515624862327343  0.0049429603952408025  0.081782674150192691
              2574053.6383964615          1.5585118855858629e-16      -1.5284647548151059e-19        11                             0                                 6                                6                             0                                17                             1.3790048086982884e-16             96.542771017181053                     96.611319961228119                       99.355205224319022             8.5208064970258615e-19  100                  100                  0                    0                    1.7098627039054858e-17    16                           1                          5                   -0.0049378804456571539  0.0049438220467958515  0.081797500765089168
              2565185.5990823698          1.5478361213958426e-16      -1.0675764190020382e-18        12                             0                                 6                                6                             0                                18                             1.368798882382529e-16             96.062960693386472                     96.611319961228119                       99.355205224319022             8.3554973696668749e-19  100                  100                  0                    0                    1.7068174164364667e-17    17                           2                          5                   -0.0048420823885413009  0.0049498312533507423  0.081900896727092026
              2577008.7179356781          1.549507220869776e-16       1.671099473933447e-19        12                             0                                 7                                7                             1                                19                             1.368798882382529e-16             96.062960693386472                     96.062960693386472                       99.355205224319022             1.0026596843600253e-18  120.00000000000003   120.00000000000003   0                    0                    1.7068174164364667e-17    18                           0                          6                   -0.0048420823885413009  0.0049498312533507423  0.081900896727092026
              2575741.4355388815          1.5479826357037621e-16      -1.5245851660138901e-19        13                             0                                 7                                7                             0                                20                             1.3673517519624881e-16             95.994448050093766                     96.062960693386472                       99.355205224319022             9.9922350173014215e-19  120.00000000000003   120.00000000000003   0                    0                    1.706386487239726e-17    19                           1                          6                   -0.0048254882443312299  0.0049506813464038381  0.081915617376270122
              2566778.6124977176          1.5373339822226888e-16      -1.0648653481073305e-18        14                             0                                 7                                7                             0                                21                             1.3572448752007991e-16             95.51489202070924                      96.062960693386472                       99.355205224319022             9.7516541527439389e-19  120.00000000000003   120.00000000000003   0                    0                    1.7033745286914594e-17    20                           2                          6                   -0.0047093060156582992  0.0049566099905852335  0.082018273549339493
# Table End
