# ODT 1.0
# Table Start
# Title: mmArchive Data Table, Wed Jun 11 15:39:41 EDT 2014
# Columns: {Oxs_CGEvolve::Max mxHxm} {Oxs_CGEvolve::Total energy} {Oxs_CGEvolve::Delta E} {Oxs_CGEvolve::Bracket count} {Oxs_CGEvolve::Line min count} {Oxs_CGEvolve::Conjugate cycle count} {Oxs_CGEvolve::Cycle count} {Oxs_CGEvolve::Cycle sub count} {Oxs_CGEvolve::Energy calc count} Oxs_UniformExchange::Energy {Oxs_UniformExchange::Max Spin Ang} {Oxs_UniformExchange::Stage Max Spin Ang} {Oxs_UniformExchange::Run Max Spin Ang} Oxs_UZeeman::Energy  Oxs_UZeeman::B       Oxs_UZeeman::Bx      Oxs_UZeeman::By      Oxs_UZeeman::Bz      Oxs_Demag::Energy    Oxs_MinDriver::Iteration {Oxs_MinDriver::Stage iteration} Oxs_MinDriver::Stage Oxs_MinDriver::mx    Oxs_MinDriver::my    Oxs_MinDriver::mz   
# Units:              A/m                         J                          J                         {}                             {}                                {}                               {}                            {}                               {}                              J                              deg                                    deg                                      deg                            J                 mT                   mT                   mT                   mT                     J                       {}                           {}                         {}                 {}                   {}                   {}           
              2568869.6774003175          1.6133145111213008e-16       1.6133145111213008e-16        0                              0                                 1                                1                             0                                1                              1.4404901560213883e-16             99.355205224319022                     99.355205224319022                       99.355205224319022             0                    0                    0                    0                    0                    1.728243550999125e-17    0                            0                          0                   -0.0051480753247218139  0.0049071934741156285  0.081179220698950297
              2567646.0277198786          1.6117371760864834e-16      -1.5773350348172885e-19        1                              0                                 1                                1                             0                                2                              1.4389585989364805e-16             99.286595111201819                     99.355205224319022                       99.355205224319022             0                    0                    0                    0                    0                    1.7277857715000297e-17    1                            1                          0                   -0.0051490288010513216  0.0049081146043018636  0.081194559166110791
              2266962.3031449593          1.3162702464697582e-16      -2.9546692961672529e-17        2                              0                                 1                                1                             0                                3                              1.15227565461342e-16             86.013930515331808                     99.355205224319022                       99.355205224319022             0                    0                    0                    0                    0                    1.639945918563382e-17    2                            2                          0                   -0.0053222142607279501  0.0050760041433624758  0.083968178058345749
              1883323.0203615271          1.0642236038845617e-16      -2.5204664258519652e-17        3                              0                                 2                                2                             0                                4                              9.0791448133302653e-17             73.38414813768108                      99.355205224319022                       99.355205224319022             0                    0                    0                    0                    0                    1.5630912255153509e-17    3                            3                          0                   -0.0054512569474632309  0.0052041361396656079  0.086407236777475083
              1601487.0082632857          8.6176696066838928e-17      -2.0245664321617241e-17        4                              0                                 3                                3                             0                                5                              7.1164822446439649e-17             60.25095627436955                      99.355205224319022                       99.355205224319022             0                    0                    0                    0                    0                    1.5011873620399276e-17    4                            4                          0                   -0.0055530759992157685  0.0053074937513051534  0.088431110383374076
              1594345.1173337868          8.6368343825723856e-17       1.9164775888493464e-19        4                              0                                 4                                4                             0                                6                              7.1164822446439649e-17             60.25095627436955                      60.25095627436955                        99.355205224319022             1.9164775888493464e-19  20                   20                   0                    0                    1.5011873620399276e-17    5                            0                          1                   -0.0055530759992157685  0.0053074937513051534  0.088431110383374076
              1203925.7067519932          7.2536950520584631e-17      -1.3831393305139233e-17        5                              0                                 4                                4                             0                                7                              5.7782176548902308e-17             48.772458868066018                     60.25095627436955                        99.355205224319022             1.6195558978345047e-19  20                   20                   0                    0                    1.4592818381898872e-17    6                            1                          1                   -0.0046927326664189398  0.0053982887894631669  0.089858048643746899
              743488.60831056547          6.3489922390802249e-17      -9.0470281297823761e-18        6                              0                                 5                                5                             0                                8                              4.9065680103830165e-17             40.129516450036007                     60.25095627436955                        99.355205224319022             1.2527792060418655e-19  20                   20                   0                    0                    1.42989643663679e-17    7                            2                          1                   -0.0036299814732321089  0.0054934704502086771  0.090726039940707104
              715033.9957352042           6.3062088220858262e-17      -4.2783416994399186e-19        7                              0                                 5                                5                             0                                9                              4.8654831959473554e-17             39.644701379951343                     60.25095627436955                        99.355205224319022             1.2311110682313824e-19  20                   20                   0                    0                    1.4284145154561567e-17    8                            3                          1                   -0.0035671971147177278  0.0054992699725666082  0.090763363531703223
              463380.13946269028          5.714516442535416e-17      -5.9169237955040963e-18        8                              0                                 6                                6                             0                                10                             4.3046450947197993e-17             33.722792370532346                     60.25095627436955                        99.355205224319022             7.561136530084655e-20  20                   20                   0                    0                    1.4023102112855322e-17    9                            4                          1                   -0.002190871734493699  0.005604269690511531  0.091027668665329214
              478785.17301830946          5.7220775790655013e-17       7.5611365300846538e-20        8                              0                                 7                                7                             0                                11                             4.3046450947197993e-17             33.722792370532346                     33.722792370532346                       99.355205224319022             1.512227306016931e-19  40                   40                   0                    0                    1.4023102112855322e-17    10                           0                          2                   -0.002190871734493699  0.005604269690511531  0.091027668665329214
              365336.65085005824          5.2871001479792669e-17      -4.3497743108623387e-18        9                              0                                 7                                7                             0                                12                             3.9228268973096978e-17             29.830445127419544                     33.722792370532346                       99.355205224319022            -9.9622961121030813e-20  40                   40                   0                    0                    1.3742355467816721e-17    11                           1                          2                    0.001443309010214285  0.0057039079823386352  0.090657887861212316
              301047.79055546247          5.0800686253504164e-17      -2.0703152262885074e-18        10                             0                                 7                                7                             0                                13                             3.7475940382254438e-17             27.463960665145223                     33.722792370532346                       99.355205224319022            -2.5168948751260867e-19  40                   40                   0                    0                    1.3576435358762336e-17    12                           2                          2                    0.0036464054171390912  0.0057650662757645493  0.090270517868930741
              260268.21334012746          4.6871063025792955e-17      -3.9296232277112105e-18        11                             0                                 8                                8                             0                                14                             3.4539032921541178e-17             24.620519294943122                     33.722792370532346                       99.355205224319022            -7.1972948713287538e-19  40                   40                   0                    0                    1.3051759591384648e-17    13                           3                          2                    0.010427235267919496  0.0058493517823806013  0.088001511498140353
              259088.5521799532           4.6052747883091177e-17      -8.1831514270177403e-19        12                             0                                 8                                8                             0                                15                             3.3984104664937512e-17             23.84651515149606                      33.722792370532346                       99.355205224319022            -8.4623813544902819e-19  40                   40                   0                    0                    1.2914881353602697e-17    14                           4                          2                    0.01226005643615305  0.0058724058906337341  0.087283042028024713
              271018.12948967103          4.5629628815366667e-17      -4.2311906772451409e-19        12                             0                                 9                                9                             0                                16                             3.3984104664937512e-17             23.84651515149606                      23.84651515149606                        99.355205224319022            -1.2693572031735422e-18  60.000000000000007   60.000000000000007   0                    0                    1.2914881353602697e-17    15                           0                          3                    0.01226005643615305  0.0058724058906337341  0.087283042028024713
              261966.01223681399          4.2511079907625136e-17      -3.1185489077415296e-18        13                             0                                 9                                9                             0                                17                             3.2834284734165548e-17             19.634368202804815                     23.84651515149606                        99.355205224319022            -2.7250211530585545e-18  60.000000000000007   60.000000000000007   0                    0                    1.240181632651814e-17    16                           1                          3                    0.026319552165995925  0.005800921452380807  0.083096005911378959
              391528.75044366205          4.0764847357578397e-17      -1.7462325500467386e-18        14                             0                                 10                               10                            0                                18                             3.2747872253488304e-17             20.15724783861295                      23.84651515149606                        99.355205224319022            -4.0366508506629579e-18  60.000000000000007   60.000000000000007   0                    0                    1.2053625954753051e-17    17                           2                          3                    0.038987896486854405  0.0056049485774678793  0.078776749017530526
              730745.13569002389          4.0356796017270793e-17      -4.0805134030760263e-19        15                             0                                 11                               11                            0                                19                             3.3255226681822521e-17             22.147187601970341                     23.84651515149606                        99.355205224319022            -4.8119304097758647e-18  60.000000000000007   60.000000000000007   0                    0                    1.1913499745224139e-17    18                           3                          3                    0.046475915717971182  0.0054335189085304532  0.076118752838071305
              353738.18027719145          3.9972002265175925e-17      -3.8479375209486726e-19        15                             1                                 11                               11                            0                                20                             3.2514018687632091e-17             20.341034314043068                     23.84651515149606                        99.355205224319022            -4.4944017608688162e-18  60.000000000000007   60.000000000000007   0                    0                    1.195238533841265e-17    19                           4                          3                    0.043409072794668671  0.0055012723270698016  0.077239625172453336
              360043.56118600292          3.8473868344886318e-17      -1.4981339202896054e-18        15                             1                                 12                               12                            0                                21                             3.2514018687632091e-17             20.341034314043068                     20.341034314043068                       99.355205224319022            -5.9925356811584216e-18  80                   80                   0                    0                    1.195238533841265e-17    20                           0                          4                    0.043409072794668671  0.0055012723270698016  0.077239625172453336
              670132.75396181014          3.7899221039714127e-17      -5.7464730517219269e-19        16                             1                                 12                               12                            0                                22                             3.3018631976127849e-17             22.887250867538153                     22.887250867538153                       99.355205224319022            -7.1070661071377612e-18  80                   80                   0                    0                    1.198765517072404e-17    21                           1                          4                    0.051482572055645569  0.0053657060183921607  0.075338836771766962
              431373.20284626406          3.7783518991368747e-17      -1.1570204834538047e-19        16                             2                                 12                               12                            0                                23                             3.2600327594041451e-17             22.077690999000108                     22.887250867538153                       99.355205224319022            -6.7836096211860979e-18  80                   80                   0                    0                    1.1966801018513393e-17    22                           2                          4                    0.049139499458058768  0.0054052916989849546  0.075903272097874966
              513138.23837453855          3.5751658189345294e-17      -2.0318608020234525e-18        17                             2                                 12                               13                            1                                24                             3.2731922538846238e-17             24.685193963176118                     24.685193963176118                       99.355205224319022            -9.1183821441006502e-18  80                   80                   0                    0                    1.2138117794599706e-17    23                           3                          4                    0.066052258229750874  0.0051146577008118659  0.071816306544261382
              594671.71145680861          3.5254321370810065e-17      -4.9733681853522704e-19        18                             2                                 12                               13                            1                                25                             3.2906666527409227e-17             25.546453402680797                     25.546453402680797                       99.355205224319022            -9.8944551480765147e-18  80                   80                   0                    0                    1.2242109991477353e-17    24                           4                          4                    0.071674020254379009  0.0050171578750898135  0.070403401186607345
              594791.07944550656          3.278070758379094e-17      -2.4736137870191287e-18        18                             2                                 13                               14                            0                                26                             3.2906666527409227e-17             25.546453402680797                     25.546453402680797                       99.355205224319022            -1.2368068935095644e-17  100.00000000000001   100.00000000000001   0                    0                    1.2242109991477353e-17    25                           0                          5                    0.071674020254379009  0.0050171578750898135  0.070403401186607345
              833565.09357655991          3.1826685363400335e-17      -9.5402222039060282e-19        19                             2                                 13                               14                            0                                27                             3.3087584187707605e-17             25.979979014367192                     25.979979014367192                       99.355205224319022            -1.3778140491059146e-17  100.00000000000001   100.00000000000001   0                    0                    1.2517241666751879e-17    26                           1                          5                    0.079845505859174465  0.0048840711551856727  0.069000127229422351
              484954.2321528655           3.167632523722598e-17      -1.5036012617435743e-19        19                             3                                 13                               14                            0                                28                             3.2646935208186298e-17             25.753830252159023                     25.979979014367192                       99.355205224319022            -1.3399295117296782e-17  100.00000000000001   100.00000000000001   0                    0                    1.2428685146336465e-17    27                           2                          5                    0.07765006442568835  0.0049180601807545764  0.069393464469841223
              318632.89873343788          3.0194871593633827e-17      -1.4814536435921522e-18        20                             3                                 13                               15                            1                                29                             3.2804870362715042e-17             27.500178374506223                     27.500178374506223                       99.355205224319022            -1.548753133391063e-17  100.00000000000001   100.00000000000001   0                    0                    1.2877532564829413e-17    28                           3                          5                    0.089751572403283658  0.0047180782141282244  0.067270579589394613
              608471.66267997411          2.9350564234722457e-17      -8.4430735891136727e-19        21                             3                                 13                               15                            1                                30                             3.3719266083419181e-17             29.485195592565351                     29.485195592565351                       99.355205224319022            -1.7893561638089268e-17  100.00000000000001   100.00000000000001   0                    0                    1.3524859789392542e-17    29                           4                          5                    0.10369472437464802  0.0044879330479184543  0.064681754193739158
              608189.33374918532          2.5771851907104605e-17      -3.5787123276178532e-18        21                             3                                 14                               16                            0                                31                             3.3719266083419181e-17             29.485195592565351                     29.485195592565351                       99.355205224319022            -2.1472273965707119e-17  120.00000000000001   120.00000000000001   0                    0                    1.3524859789392542e-17    30                           0                          6                    0.10369472437464802  0.0044879330479184543  0.064681754193739158
              845139.46979233809          2.5378989462472662e-17      -3.9286244463194352e-19        22                             3                                 14                               16                            0                                32                             3.4617290144253703e-17             29.157283004349704                     29.485195592565351                       99.355205224319022            -2.3291526147808479e-17  120.00000000000001   120.00000000000001   0                    0                    1.4053225466027438e-17    31                           1                          6                    0.11248032639762245  0.0043612168822756078  0.063551897601994964
              321555.03226241999          2.4159148351559604e-17      -1.2198411109130593e-18        22                             4                                 14                               16                            0                                33                             3.2838973061195261e-17             28.376644199496383                     29.485195592565351                       99.355205224319022            -2.2449369753899331e-17  120.00000000000001   120.00000000000001   0                    0                    1.3769545044263674e-17    32                           2                          6                    0.10841335262082429  0.0044164588683574943  0.064117304927323024
              280370.45667822595          2.296724727692962e-17      -1.1919010746299832e-18        23                             4                                 14                               17                            1                                34                             3.2846918239885493e-17             28.690862274886538                     29.485195592565351                       99.355205224319022            -2.4136168246008224e-17  120.00000000000001   120.00000000000001   0                    0                    1.4256497283052347e-17    33                           3                          6                    0.116559304232384    0.0043023090485278994  0.063067489604738652
              612001.95935566525          2.2788766946053879e-17      -1.7848033087574173e-19        24                             4                                 14                               17                            1                                35                             3.3992089978541977e-17             29.794294406850209                     29.794294406850209                       99.355205224319022            -2.6104087421805024e-17  120.00000000000001   120.00000000000001   0                    0                    1.4900764389316923e-17    34                           4                          6                    0.12606285457138108  0.0041712035990615522  0.061752256275021476
# Table End
