# ODT 1.0
# Table Start
# Title: mmArchive Data Table, Wed Jun 11 15:39:47 EDT 2014
# Columns: {Oxs_EulerEvolve:evolve:Total energy} {Oxs_EulerEvolve:evolve:Energy calc count} {Oxs_EulerEvolve:evolve:Max dm/dt} Oxs_EulerEvolve:evolve:dE/dt {Oxs_EulerEvolve:evolve:Delta E} Oxs_UniformExchange:NiFe:Energy {Oxs_UniformExchange:NiFe:Max Spin Ang} {Oxs_UniformExchange:NiFe:Stage Max Spin Ang} {Oxs_UniformExchange:NiFe:Run Max Spin Ang} Oxs_UZeeman::Energy  Oxs_UZeeman::B       Oxs_UZeeman::Bx      Oxs_UZeeman::By      Oxs_UZeeman::Bz      Oxs_Demag::Energy    Oxs_TimeDriver::Iteration {Oxs_TimeDriver::Stage iteration} Oxs_TimeDriver::Stage Oxs_TimeDriver::mx   Oxs_TimeDriver::my   Oxs_TimeDriver::mz   {Oxs_TimeDriver::Last time step} {Oxs_TimeDriver::Simulation time}
# Units:                     J                                       {}                                   deg/ns                           J/s                             J                                J                                  deg                                        deg                                          deg                              J                 mT                   mT                   mT                   mT                     J                       {}                            {}                          {}                   {}                   {}                   {}                          s                                 s                
                    1.4603287196574405e-17                      1                                      4133.7817809272365             -1.074912352113485e-07            0                               0                                   0                                          0                                            0                                0                    0                    0                    0                    0                    1.4603287196574405e-17    0                             0                           0                     1                    0                    0                          0                                0                         
                    1.4603027960338632e-17                      2                                      4133.204306821759              -1.0722035369319788e-07           -2.5923623577443861e-22             8.041102988402323e-25                 0.0034953093384671582                        0.0034953093384671582                          0.0034953093384671582              0                    0                    0                    0                    0                    1.4603027156228333e-17    1                             1                           0                     0.99999999953884644  6.5630371507789204e-26 -1.6870185803874449e-25        2.4190923783492336e-15              2.4190923783492336e-15       
                    1.4602704957075058e-17                      3                                      4132.5902593734108             -1.0689034547603771e-07           -3.2300326357516242e-22             4.0235844431704979e-24                 0.0078601730710880571                        0.0078601730710880571                          0.0078601730710880571              0                    0                    0                    0                    0                    1.4602700933490614e-17    2                             2                           0                     0.99999999766871606 -4.8803553790814169e-25  6.505213034913026e-27        3.0238654729365422e-15              5.4429578512857762e-15       
                    1.4602302782704672e-17                      4                                      4131.9801886148625             -1.0649066363407243e-07           -4.0217437038379175e-22             1.138501764044918e-23                 0.013309560046241934                        0.013309560046241934                          0.013309560046241934              0                    0                    0                    0                    0                    1.4602291397687032e-17    3                             3                           0                     0.99999999331831679 -9.7491459349896555e-25 -1.1911767868374076e-25        3.7798318411706777e-15              9.2227896924564531e-15       
                    1.4601802443294862e-17                      5                                      4131.4426071759435             -1.0601000531741194e-07           -5.003394098110622e-22             2.5567573244060859e-23                 0.0201108051504287                         0.0201108051504287                           0.0201108051504287               0                    0                    0                    0                    0                    1.4601776875721617e-17    4                             4                           0                     0.99999998475201968 -2.3684757858670005e-24 -4.0881649917186755e-25        4.7247898014633473e-15              1.3947579493919801e-14       
                   -9.3981971907536171e-18                      6                                      4131.0375957469851             -1.0598946735956313e-07            0                               2.5567573244060859e-23                 0.0201108051504287                         0.0201108051504287                           0.0201108051504287              -2.3999999634048479e-17  100.00000000000001   100.00000000000001   0                    0                    1.4601776875721617e-17    5                             0                           1                     0.99999998475201968 -2.3684757858670005e-24 -4.0881649917186755e-25        0                                1.3947579493919801e-14       
                   -9.3988188769387738e-18                      7                                      4130.5053534663248             -1.0540764363138467e-07           -6.2168618515649098e-22             5.063468134875564e-23                 0.028595080234524232                        0.028595080234524232                          0.028595080234524232             -2.3999999260552786e-17  100.00000000000001   100.00000000000001   0                    0                    1.4601129748932666e-17    6                             1                           1                     0.99999996918969924 -3.992176959381292e-24 -1.7752003570829326e-25        5.9059872518291839e-15              1.9853566745748985e-14       
                   -9.3995906467556057e-18                      8                                      4130.2497260969049             -1.0472008792532894e-07           -7.717698168331424e-22             9.2611162452798704e-23                 0.039174166486899781                        0.039174166486899781                          0.039174166486899781             -2.3999998613088107e-17  100.00000000000001   100.00000000000001   0                    0                    1.4600315355170048e-17    7                             2                           1                     0.99999994221200428 -4.8595386973696953e-24  2.4054832200211725e-25        7.3824840647864799e-15              2.7236050810535465e-14       
                   -9.4005475422645242e-18                      9                                      4130.4262897168092             -1.0391653102609046e-07           -9.5689550891782679e-22             1.6018315819624466e-22                 0.052356778380223214                        0.052356778380223214                          0.052356778380223214             -2.39999975243484e-17  100.00000000000001   100.00000000000001   0                    0                    1.4599289798925679e-17    8                             3                           1                     0.99999989684784973 -6.0553414134763743e-24 -7.4361813003539131e-25        9.2281050809830998e-15              3.6464155891518562e-14       
                   -9.4017323528455032e-18                      10                                     4131.15610182001               -1.0298892810966446e-07           -1.1848105809797134e-21             2.6546053327519976e-22                 0.068770183818905109                        0.068770183818905109                          0.068770183818905109             -2.3999995732035118e-17  100.00000000000001   100.00000000000001   0                    0                    1.459799791865634e-17    9                             4                           1                     0.99999982216812977 -7.766935243106825e-24  4.6837533851373793e-25        1.1535131351228875e-14              4.7999287242747438e-14       
# Table End
