# ODT 1.0
# Table Start
# Title: mmArchive Data Table, Wed Jun 16 18:44:49 EDT 2010
# Columns: {Oxs_EulerEvolve:evolve:Total energy} {Oxs_EulerEvolve:evolve:Energy calc count} {Oxs_EulerEvolve:evolve:Max dm/dt} Oxs_EulerEvolve:evolve:dE/dt {Oxs_EulerEvolve:evolve:Delta E} Oxs_UniformExchange:NiFe:Energy {Oxs_UniformExchange:NiFe:Max Spin Ang} {Oxs_UniformExchange:NiFe:Stage Max Spin Ang} {Oxs_UniformExchange:NiFe:Run Max Spin Ang} Oxs_UZeeman::Energy  Oxs_UZeeman::B       Oxs_UZeeman::Bx      Oxs_UZeeman::By      Oxs_UZeeman::Bz      Oxs_Demag::Energy    Oxs_TimeDriver::Iteration {Oxs_TimeDriver::Stage iteration} Oxs_TimeDriver::Stage Oxs_TimeDriver::mx   Oxs_TimeDriver::my   Oxs_TimeDriver::mz   {Oxs_TimeDriver::Last time step} {Oxs_TimeDriver::Simulation time}
# Units:                     J                                       {}                                   deg/ns                           J/s                             J                                J                                  deg                                        deg                                          deg                              J                 mT                   mT                   mT                   mT                     J                       {}                            {}                          {}                   {}                   {}                   {}                          s                                 s                
                    1.4603287196573973e-17                      1                                      4133.7817809311573             -1.0749123521132586e-07            0                               0                                   0                                          0                                            0                                0                    0                    0                    0                    0                    1.4603287196573973e-17    0                             0                           0                     1                    0                    0                          0                                0                         
                    1.46030279603382e-17                      2                                      4133.204306825709              -1.0722035369317538e-07           -2.592362357741381e-22             8.0411029883908426e-25                 0.0034953093646100954                        0.0034953093646100954                          0.0034953093646100954              0                    0                    0                    0                    0                    1.4603027156227902e-17    1                             1                           0                     0.99999999953884644 -1.0789170482953617e-22 -7.0556986179563335e-24        2.4190923783469392e-15              2.4190923783469392e-15       
                    1.4602704957074626e-17                      3                                      4132.5902593773899             -1.0689034547601536e-07           -3.2300326357478847e-22             4.0235844431647828e-24                 0.0078601731110092398                        0.0078601731110092398                          0.0078601731110092398              0                    0                    0                    0                    0                    1.4602700933490183e-17    2                             2                           0                     0.99999999766871606 -2.4269590966537653e-22 -1.6489269440607876e-23        3.0238654729336743e-15              5.4429578512806131e-15       
                   -9.3972949869745654e-18                      4                                      4132.4320068008801             -1.0688220684803186e-07            0                               4.0235844431647828e-24                 0.0078601731110092398                        0.0078601731110092398                          0.0078601731110092398             -2.3999999944049192e-17  100.00000000000001   100.00000000000001   0                    0                    1.4602700933490183e-17    3                             0                           1                     0.99999999766871606 -2.4269590966537653e-22 -1.6489269440607876e-23        0                                5.4429578512806131e-15       
                   -9.3976971038399276e-18                      5                                      4131.7120463134943             -1.0647691559621632e-07           -4.0211686536230399e-22             1.1384668125996663e-23                 0.013309351470816086                        0.013309351470816086                          0.013309351470816086             -2.3999999839644631e-17  100.00000000000001   100.00000000000001   0                    0                    1.4602291351136578e-17    4                             1                           1                     0.99999999331852607 -4.1145674830230423e-22 -2.7527459478537962e-23        3.7798318411670923e-15              9.2227896924477062e-15       
                   -9.3981973367935028e-18                      6                                      4131.0371296198518             -1.0598930571723463e-07           -5.0023295357446323e-22             2.5565940468230426e-23                 0.020110154757661571                        0.020110154757661571                          0.020110154757661571             -2.3999999634072138e-17  100.00000000000001   100.00000000000001   0                    0                    1.4601776731338165e-17    5                             2                           1                     0.99999998475300544 -6.2192149578403173e-22 -4.157496106641882e-23        4.7247898014588658e-15              1.3947579493906572e-14       
# Table End
