# ODT 1.0
# Table Start
# Title: mmArchive Data Table, Wed Jun 11 15:39:51 EDT 2014
# Columns: {Oxs_EulerEvolve::Total energy} {Oxs_EulerEvolve::Energy calc count} {Oxs_EulerEvolve::Max dm/dt} Oxs_EulerEvolve::dE/dt {Oxs_EulerEvolve::Delta E} Oxs_UniaxialAnisotropy::Energy Oxs_UniformExchange:NiFe:Energy {Oxs_UniformExchange:NiFe:Max Spin Ang} {Oxs_UniformExchange:NiFe:Stage Max Spin Ang} {Oxs_UniformExchange:NiFe:Run Max Spin Ang} Oxs_TimeDriver::Iteration {Oxs_TimeDriver::Stage iteration} Oxs_TimeDriver::Stage Oxs_TimeDriver::mx   Oxs_TimeDriver::my   Oxs_TimeDriver::mz   {Oxs_TimeDriver::Last time step} {Oxs_TimeDriver::Simulation time}
# Units:                  J                                 {}                             deg/ns                     J/s                       J                            J                               J                                  deg                                        deg                                          deg                                {}                            {}                          {}                   {}                   {}                   {}                          s                                 s                
                 4.3154897543069373e-17                1                                9728.8415452211921       -1.1415065740955247e-06      0                            2.7733333333333334e-17            1.5421564209736039e-17                 135                                        135                                          135                                0                             0                           0                     0                    0                    0                          0                                0                         
                 4.315372418254e-17                 2                                9729.4176204207688       -1.1416927230853432e-06     -1.1733605293725786e-21          2.7732361205457138e-17            1.5421362977082862e-17                 134.99989120319893                         135                                          135                                1                             1                           0                     9.9920072216264095e-21 -1.8126505071242027e-22 -4.7020916771592506e-05        1.0278716076850898e-15              1.0278716076850898e-15       
                 4.3152257230784788e-17                3                                9730.1372840605381       -1.1419253872668756e-06     -1.4669517552127939e-21          2.7731145918654942e-17            1.5421111312129843e-17                 134.99975567544158                         135                                          135                                2                             2                           0                     5.551115123125783e-21  1.2851861502100048e-21 -0.00010580137828602373        1.2848395096063624e-15              2.3127111172914523e-15       
                 4.3150423148832591e-17                4                                9731.0361908441009       -1.142216182968099e-06     -1.8340819521940718e-21          2.772962661193586e-17            1.5420796536896731e-17                 134.99958699731084                         135                                          135                                3                             3                           0                    -3.3306690738754697e-21  4.8100629382319406e-21 -0.0001792836938603737        1.606049387007953e-15              3.9187605042994052e-15       
                 4.3148129933636423e-17                5                                9732.1587724841575       -1.1425796235240309e-06     -2.2932151961709695e-21          2.7727727169124661e-17            1.5420402764511762e-17                 134.99937729259156                         135                                          135                                4                             4                           0                    -1.1102230246251566e-20 -4.6143644460983069e-21 -0.00027114710898689298        2.0075617337599413e-15              5.9263222380593462e-15       
# Table End
