# ODT 1.0
# Table Start
# Title: mmArchive Data Table, Fri Jul 23 17:28:00 EDT 2021
# Columns: {Oxs_CGEvolve:evolver:Max mxHxm} {Oxs_CGEvolve:evolver:Total energy} {Oxs_CGEvolve:evolver:Delta E} {Oxs_CGEvolve:evolver:Bracket count} {Oxs_CGEvolve:evolver:Line min count} {Oxs_CGEvolve:evolver:Conjugate cycle count} {Oxs_CGEvolve:evolver:Cycle count} {Oxs_CGEvolve:evolver:Cycle sub count} {Oxs_CGEvolve:evolver:Energy calc count} Oxs_CubicAnisotropy::Energy Oxs_UniformExchange::Energy {Oxs_UniformExchange::Max Spin Ang} {Oxs_UniformExchange::Stage Max Spin Ang} {Oxs_UniformExchange::Run Max Spin Ang} Oxs_Demag::Energy    Oxs_UZeeman:extfield0:Energy Oxs_UZeeman:extfield0:B Oxs_UZeeman:extfield0:Bx Oxs_UZeeman:extfield0:By Oxs_UZeeman:extfield0:Bz Oxs_MinDriver::Iteration {Oxs_MinDriver::Stage iteration} Oxs_MinDriver::Stage Oxs_MinDriver::mx    Oxs_MinDriver::my    Oxs_MinDriver::mz   
# Units:                 A/m                                 J                                J                                 {}                                   {}                                        {}                                      {}                                   {}                                      {}                                 J                           J                              deg                                    deg                                      deg                           J                         J                         mT                       mT                       mT                       mT                       {}                           {}                         {}                 {}                   {}                   {}           
                  9264930.6019848883                1.5401556702922855e-13               1.5401556702922855e-13               0                                    0                                         1                                       1                                    0                                       1                                -4.6677378072003824e-17         1.5150550977953248e-13             179.95268209104702                     179.95268209104702                       179.95268209104702             2.5567346277680845e-15      0                         0                        0                        0                        0                        0                            0                          0                    0.00022240754121260496 -0.00055664800510419948 -0.00062969375225846024
                  9264696.6036801059                1.5398428047520744e-13              -3.1286554021112354e-17               1                                    0                                         1                                       1                                    0                                       2                                -4.6677372961096108e-17         1.5147426305203466e-13             179.94823483996112                     179.95268209104702                       179.95268209104702             2.5566947961338776e-15      0                         0                        0                        0                        0                        1                            1                          0                    0.00022277699318642245 -0.00055709590790845541 -0.00062995222280995086
                  9134984.0430075396                1.4772903152151551e-13              -6.2552489536919276e-15               2                                    0                                         1                                       1                                    0                                       3                                -4.6676677864214869e-17         1.4522722283063013e-13             179.83929428904111                     179.95268209104702                       179.95268209104702             2.5484853687496e-15      0                         0                        0                        0                        0                        2                            2                          0                    0.00029729623703290541 -0.0006468335883852899 -0.00068098321607569436
                  9214478.0338449907                1.4144275609645548e-13              -6.2862754250600277e-15               3                                    0                                         2                                       2                                    0                                       4                                -4.6676748754458766e-17         1.3895022608767973e-13             179.9062680456243                      179.95268209104702                       179.95268209104702             2.5392067575302251e-15      0                         0                        0                        0                        0                        3                            3                          0                    0.00038004938977020958 -0.0007456370802600311 -0.0007366263197482512
                  9212936.3079709224                1.3535028511507748e-13              -6.0924709813780035e-15               4                                    0                                         3                                       3                                    0                                       5                                -4.6678054733100659e-17         1.3286780456236696e-13             179.80851203231848                     179.95268209104702                       179.95268209104702             2.5291586074436313e-15      0                         0                        0                        0                        0                        4                            4                          0                    0.00046659335584042972 -0.00085050594385186222 -0.00079679777604503967
                  9212566.9125582203                1.3535026249252374e-13              -2.2622553737470615e-20               4                                    0                                         4                                       4                                    0                                       6                                -4.6678054733100659e-17         1.3286780456236696e-13             179.80851203231848                     179.80851203231848                       179.95268209104702             2.5291586074436313e-15     -2.2622553724099612e-20       2.0003999600079978       2                        0.040000000000000001      0                        5                            0                          1                    0.00046659335584042972 -0.00085050594385186222 -0.00079679777604503967
                  9229626.0289675798                1.2943718804269656e-13              -5.9130744498271799e-15               5                                    0                                         4                                       4                                    0                                       7                                -4.6680778170631483e-17         1.2696555363866045e-13             179.90367259522708                     179.90367259522708                       179.95268209104702             2.5183431706444146e-15     -2.7988437645595587e-20       2.0003999600079978       2                        0.040000000000000001      0                        6                            1                          1                    0.00057544632036876729 -0.00096128162392118406 -0.00086332716687127146
                  9192950.7890068851                1.2374714317746654e-13              -5.6900448652300283e-15               6                                    0                                         5                                       5                                    0                                       8                                -4.6684854541014818e-17         1.2128698867004138e-13             179.88406852267113                     179.90367259522708                       179.95268209104702             2.506872789041971e-15     -3.3427075810365392e-20       2.0003999600079978       2                        0.040000000000000001      0                        7                            2                          1                    0.00068585408923886137 -0.0010775044267780282 -0.00093718825893970219
                  8889733.5886519495                1.1826946419073125e-13              -5.4776789867352854e-15               7                                    0                                         6                                       6                                    0                                       9                                -4.6690160648772954e-17         1.1582141936215992e-13             179.97469607993168                     179.97469607993168                       179.97469607993168             2.4947738708894255e-15     -3.8881669314909252e-20       2.0003999600079978       2                        0.040000000000000001      0                        8                            3                          1                    0.00079668940804278549 -0.0011992505186404691 -0.0010193469611104236
                  8970707.0909939799                1.128656630874241e-13              -5.4038011033071524e-15               8                                    0                                         7                                       7                                    0                                       10                               -4.6696759288136138e-17         1.1043064886469601e-13             179.93256236364226                     179.97469607993168                       179.97469607993168             2.4817554296028195e-15     -4.4447586612679303e-20       2.0003999600079978       2                        0.040000000000000001      0                        9                            4                          1                    0.00090991133829064692 -0.001329709009526182 -0.0011123136724723716
                  8971531.721328903                 1.1286561863983748e-13              -4.4447586618785771e-20               8                                    0                                         8                                       8                                    0                                       11                               -4.6696759288136138e-17         1.1043064886469601e-13             179.93256236364226                     179.93256236364226                       179.97469607993168             2.4817554296028195e-15     -8.8895173225358606e-20       4.0007999200159956       4                        0.080000000000000002      0                        10                           0                          2                    0.00090991133829064692 -0.001329709009526182 -0.0011123136724723716
                  9150388.264223922                 1.0778005411956922e-13              -5.0855645202682542e-15               9                                    0                                         8                                       8                                    0                                       12                               -4.6704179851701538e-17         1.0535842157639945e-13             179.8686187986157                      179.93256236364226                       179.97469607993168             2.4684385137098281e-15     -1.0179068835520838e-19       4.0007999200159956       4                        0.080000000000000002      0                        11                           1                          2                    0.0010407087566643388 -0.0014626911380516783 -0.0012114282228039908
                  9120706.9172916319                1.0305230641653605e-13              -4.7277477030331709e-15               10                                   0                                         9                                       9                                    0                                       13                               -4.6711960764225362e-17         1.0064406873587023e-13             179.89112452385609                     179.93256236364226                       179.97469607993168             2.4550639573201849e-15     -1.1431589014074938e-19       4.0007999200159956       4                        0.080000000000000002      0                        12                           2                          2                    0.0011678409782925811 -0.0015963964955573323 -0.001313556841616803
                  9114541.7299347371                9.8558986131558073e-14              -4.4933202849779807e-15               11                                   0                                         10                                      10                                   0                                       14                               -4.6719784155265722e-17         9.6164425010662997e-14             179.79983263895056                     179.93256236364226                       179.97469607993168             2.4414076351419346e-15     -1.2673009159459433e-19       4.0007999200159956       4                        0.080000000000000002      0                        13                           3                          2                    0.0012939277620597446 -0.0017329783409529558 -0.0014186686527199515
                  9340537.0822671372                9.4304538105319283e-14              -4.25444802623879e-15               12                                   0                                         11                                      11                                   0                                       15                               -4.6727047703025494e-17         9.1923837239614769e-14             179.96372896643777                     179.96372896643777                       179.97469607993168             2.4275668911680418e-15     -1.3897776049897641e-19       4.0007999200159956       4                        0.080000000000000002      0                        14                           4                          2                    0.001418393965762537 -0.0018712696789252943 -0.0015243147898883771
                  9341065.4870347809                9.4304468616439037e-14              -6.9488880245187905e-20               12                                   0                                         12                                      12                                   0                                       16                               -4.6727047703025494e-17         9.1923837239614769e-14             179.96372896643777                     179.96372896643777                       179.97469607993168             2.4275668911680418e-15     -2.0846664074846458e-19       6.0011998800239938       6                        0.12                     0                        15                           0                          3                    0.001418393965762537 -0.0018712696789252943 -0.0015243147898883771
                  9115711.4898616951                9.037721698825557e-14              -3.9272516281834677e-15               13                                   0                                         12                                      12                                   0                                       17                               -4.6733042304899362e-17         8.8010238702550147e-14             179.86122118932275                     179.96372896643777                       179.97469607993168             2.4139404540884675e-15     -2.2912607815052021e-19       6.0011998800239938       6                        0.12                     0                        16                           1                          3                    0.0015579578505646864 -0.0020066343735453194 -0.0016259706430453138
                  8705951.6964186747                8.6569281829599374e-14              -3.8079351586561954e-15               14                                   0                                         13                                      13                                   0                                       18                               -4.6737632027953945e-17         8.4216372940995687e-14             179.93502377526363                     179.96372896643777                       179.97469607993168             2.3998966369775856e-15     -2.5011634594873521e-19       6.0011998800239938       6                        0.12                     0                        17                           2                          3                    0.0016997779881218476 -0.0021452338909287629 -0.0017270289473538354
                  8788197.2996605672                8.2804569987272337e-14              -3.7647118423270372e-15               15                                   0                                         14                                      14                                   0                                       19                               -4.6740469359250063e-17         8.0466439909430722e-14             179.81813324287191                     179.96372896643777                       179.97469607993168             2.3851423725265281e-15     -2.718253256629591e-19       6.0011998800239938       6                        0.12                     0                        18                           3                          3                    0.0018464720696825033 -0.0022894784758052279 -0.0018281667343854283
                  8927018.3263201136                7.9289603720067663e-14              -3.514966267204674e-15               16                                   0                                         15                                      15                                   0                                       20                               -4.6741249608270341e-17         7.6966136276838618e-14             179.79288156485543                     179.96372896643777                       179.97469607993168             2.3705016851727888e-15     -2.9299233547326472e-19       6.0011998800239938       6                        0.12                     0                        19                           4                          3                    0.0019895238499813756 -0.0024311195495832004 -0.0019227870889530498
                  8925930.6890965216                7.9289506055955832e-14              -9.7664111831533214e-20               16                                   0                                         16                                      16                                   0                                       21                               -4.6741249608270341e-17         7.6966136276838618e-14             179.79288156485543                     179.79288156485543                       179.97469607993168             2.3705016851727888e-15     -3.9065644729768629e-19       8.0015998400319912       8                        0.16                     0                        20                           0                          4                    0.0019895238499813756 -0.0024311195495832004 -0.0019227870889530498
                  8834513.671662109                 7.602505981892002e-14              -3.2644462370358121e-15               17                                   0                                         16                                      16                                   0                                       22                               -4.6740295354158295e-17         7.371613976610966e-14             179.90683935132111                     179.90683935132111                       179.97469607993168             2.3560824615912265e-15     -4.2211342670836268e-19       8.0015998400319912       8                        0.16                     0                        21                           1                          4                    0.0021485635727477273 -0.002568707940733194 -0.0020100239810526936
                  8988948.8034077566                7.2911996283762086e-14              -3.1130635351579334e-15               18                                   0                                         17                                      17                                   0                                       23                               -4.6738047542542476e-17         7.0617661012984895e-14             179.76317758340346                     179.90683935132111                       179.97469607993168             2.3415267422278215e-15     -4.534239080942283e-19       8.0015998400319912       8                        0.16                     0                        22                           2                          4                    0.0023068730440062388 -0.0027061761201730931 -0.0020920500889486954
                  8935717.7127156518                7.0024112749477238e-14              -2.8878835342848479e-15               19                                   0                                         18                                      18                                   0                                       24                               -4.6735071025077473e-17         6.7744084649271217e-14             179.81264349257623                     179.90683935132111                       179.97469607993168             2.3272468025282553e-15     -4.8363129715202016e-19       8.0015998400319912       8                        0.16                     0                        23                           3                          4                    0.0024596302866127574 -0.0028400579757458522 -0.0021667399951783069
                  8873888.3095903751                6.7279904427664705e-14              -2.7442083218125333e-15               20                                   0                                         19                                      19                                   0                                       25                               -4.6731767191987065e-17         6.5014228242268159e-14             179.84294508993591                     179.90683935132111                       179.97469607993168             2.3129212983596366e-15     -5.1334577109699224e-19       8.0015998400319912       8                        0.16                     0                        24                           4                          4                    0.0026099391710622164 -0.0029739696224925561 -0.0022362060228335052
                  8873994.1210232638                6.7279776091221926e-14              -1.2833644277903537e-19               20                                   0                                         20                                      20                                   0                                       26                               -4.6731767191987065e-17         6.5014228242268159e-14             179.84294508993591                     179.84294508993591                       179.97469607993168             2.3129212983596366e-15     -6.4168221387124041e-19       10.001999800039991       10.000000000000002       0.20000000000000001      0                        25                           0                          5                    0.0026099391710622164 -0.0029739696224925561 -0.0022362060228335052
                  9035432.9511835221                6.467014378972153e-14              -2.6096323015003954e-15               21                                   0                                         20                                      20                                   0                                       27                               -4.6728513292510194e-17         6.2419005475578968e-14             179.93186053717091                     179.93186053717091                       179.97469607993168             2.2985502330669833e-15     -6.8340563191255605e-19       10.001999800039991       10.000000000000002       0.20000000000000001      0                        26                           1                          5                    0.0027784624730625442 -0.0031083434557217004 -0.002300795938173309
                  9072567.9744741898                6.2249186466150614e-14              -2.4209573235709164e-15               22                                   0                                         21                                      21                                   0                                       28                               -4.6725674907954717e-17         6.0012134380138384e-14             179.7930657115979                      179.93186053717091                       179.97469607993168             2.2845012591796562e-15     -7.2349825947502695e-19       10.001999800039991       10.000000000000002       0.20000000000000001      0                        27                           2                          5                    0.0029404718677842378 -0.0032411126847228179 -0.0023595437752364709
                  8780647.6510396171                5.9969385171829366e-14              -2.2798012943212478e-15               23                                   0                                         22                                      22                                   0                                       29                               -4.6723362249625924e-17         5.7746285182376172e-14             179.80379070202764                     179.93186053717091                       179.97469607993168             2.270585805023856e-15     -7.6245332103856559e-19       10.001999800039991       10.000000000000002       0.20000000000000001      0                        28                           3                          5                    0.0030979813369713077 -0.0033749567562381426 -0.0024140797816285791
                  8796665.3842323162                5.7742489239979479e-14              -2.2268959318498874e-15               24                                   0                                         23                                      23                                   0                                       30                               -4.6721524629505887e-17         5.5533713041803366e-14             179.62276088692892                     179.93186053717091                       179.97469607993168             2.2562993173509555e-15     -8.0159454534507551e-19       10.001999800039991       10.000000000000002       0.20000000000000001      0                        29                           4                          5                    0.0032563681784199567 -0.0035156728888039099 -0.0024669892399943783
                  8795796.4940169659                5.7742328921070408e-14              -1.6031890907116717e-19               24                                   0                                         24                                      24                                   0                                       31                               -4.6721524629505887e-17         5.5533713041803366e-14             179.62276088692892                     179.62276088692892                       179.97469607993168             2.2562993173509555e-15     -9.6191345441409065e-19       12.002399760047988       12                       0.23999999999999999      0                        30                           0                          6                    0.0032563681784199567 -0.0035156728888039099 -0.0024669892399943783
                  8807214.0849673692                5.5643021603445393e-14              -2.0993073176250146e-15               25                                   0                                         24                                      24                                   0                                       32                               -4.6720115121254296e-17         5.34486151293039e-14             179.70579417373068                     179.70579417373068                       179.97469607993168             2.2421403717533377e-15     -1.0137824905856816e-18       12.002399760047988       12                       0.23999999999999999      0                        31                           1                          6                    0.0034310343414908602 -0.0036589365434702651 -0.0025169827288501596
                  8501593.1720862109                5.3662332117304921e-14              -1.9806894861404715e-15               26                                   0                                         25                                      25                                   0                                       33                               -4.6718912759124373e-17         5.1482005593580651e-14             179.77349274795594                     179.77349274795594                       179.97469607993168             2.228109696136821e-15     -1.0642596534247909e-18       12.002399760047988       12                       0.23999999999999999      0                        32                           2                          6                    0.0036011591766193845 -0.0038056423036869928 -0.002564701098654888