# ODT 1.0
# Table Start
# Title: mmArchive Data Table, Tue Jul 13 22:40:22 EDT 2021
# Columns: {Oxs_CGEvolve:evolve:Max mxHxm} {Oxs_CGEvolve:evolve:Total energy} {Oxs_CGEvolve:evolve:Delta E} {Oxs_CGEvolve:evolve:Bracket count} {Oxs_CGEvolve:evolve:Line min count} {Oxs_CGEvolve:evolve:Conjugate cycle count} {Oxs_CGEvolve:evolve:Cycle count} {Oxs_CGEvolve:evolve:Cycle sub count} {Oxs_CGEvolve:evolve:Energy calc count} Oxs_Exchange6Ngbr::Energy {Oxs_Exchange6Ngbr::Max Spin Ang} {Oxs_Exchange6Ngbr::Stage Max Spin Ang} {Oxs_Exchange6Ngbr::Run Max Spin Ang} Oxs_UniaxialAnisotropy::Energy Oxs_UZeeman::Energy  Oxs_UZeeman::B       Oxs_UZeeman::Bx      Oxs_UZeeman::By      Oxs_UZeeman::Bz      Oxs_Demag::Energy    Oxs_MinDriver::Iteration {Oxs_MinDriver::Stage iteration} Oxs_MinDriver::Stage Oxs_MinDriver::mx    Oxs_MinDriver::my    Oxs_MinDriver::mz   
# Units:                 A/m                               J                                J                               {}                                   {}                                      {}                                     {}                                  {}                                     {}                                J                            deg                                  deg                                    deg                                J                         J                 mT                   mT                   mT                   mT                     J                       {}                           {}                         {}                 {}                   {}                   {}           
                 352049.51164653909                2.7181868808427016e-16             2.7181868808427016e-16              0                                    0                                       1                                      1                                   0                                      1                                0                             0                                    0                                      0                                  1.3520000000000006e-16       0                    0                    0                    0                    0                    1.3661868808427013e-16    0                            0                          0                    0.99498743713555382  0.099999999712112542  0                  
                 351068.12294659723                2.7178312935044451e-16            -3.5558733825647187e-20              1                                    0                                       1                                      1                                   0                                      2                                5.2852342403100733e-23           0.032062134278710915                  0.032062134278710915                    0.032062134278710915                1.3519998446913779e-16       0                    0                    0                    0                    0                    1.3658309202896435e-16    1                            1                          0                    0.99498516151073102  0.10002213482777579  3.4243023410125308e-22
                 210836.74385982277                2.665115219985853e-16            -5.2716073518592104e-18              2                                    0                                       1                                      1                                   0                                      3                                2.1226317893023854e-18           6.4039689881342596                   6.4039689881342596                     6.4039689881342596                 1.3457815429258452e-16       0                    0                    0                    0                    0                    1.2981073591669843e-16    2                            2                          0                    0.99250916567045844  0.10423156438440223 -2.6298641978976236e-19
                 327535.48153279675                2.6461699403663665e-16            -1.8945279619486537e-18              3                                    0                                       2                                      2                                   0                                      4                                5.0733694747098556e-18           13.908029129505058                   13.908029129505058                     13.908029129505058                 1.3362469915870714e-16       0                    0                    0                    0                    0                    1.2591892540321962e-16    3                            3                          0                    0.98821041232406726  0.11036554600295893  4.3831069964960396e-19
                 352694.43859850842                2.6460857493877309e-16            -8.4190978635623368e-21              4                                    1                                       2                                      2                                   0                                      6                                5.4229969659331445e-18           14.533488503080102                   14.533488503080102                     14.533488503080102                 1.3353451660631481e-16       0                    0                    0                    0                    0                    1.2565106136652515e-16    4                            4                          0                    0.98780914714432544  0.11078913492010349 -1.5779185187385741e-18
                 344648.52476381918                2.3181331125358149e-16            -3.2795263685191601e-17              4                                    1                                       3                                      3                                   0                                      7                                5.4229969659331445e-18           14.533488503080102                   14.533488503080102                     14.533488503080102                 1.3353451660631481e-16      -3.2795263685191613e-17  50                   50                   0                    0                    1.2565106136652515e-16    5                            0                          1                    0.98780914714432544  0.11078913492010349 -1.5779185187385741e-18
                 145458.86033786388                2.3103486831188572e-16            -7.7844294169576296e-19              5                                    2                                       3                                      3                                   0                                      9                                5.4215466791978432e-18           10.936117796027919                   14.533488503080102                     14.533488503080102                 1.3347447367161147e-16      -3.277236639220504e-17  50                   50                   0                    0                    1.2491121435328145e-16    6                            1                          1                    0.98711946964472996  0.11220724831766042 -7.0129711943936631e-19
                 104179.84210638671                2.3072851994042614e-16            -3.0634837145958815e-19              6                                    2                                       3                                      4                                   1                                      10                               5.9695362223823781e-18           10.637288687541504                   14.533488503080102                     14.533488503080102                 1.3337043229773375e-16      -3.2734658797972964e-17  50                   50                   0                    0                    1.2412321021828299e-16    7                            2                          1                    0.98598369873412506  0.11442146672726808  3.5064855971968316e-19
                 340709.36112832685                2.3066892654970577e-16            -5.9593390720370058e-20              7                                    2                                       3                                      4                                   1                                      11                               7.244805987936764e-18           11.025368239536222                   14.533488503080102                     14.533488503080102                 1.3318187284957623e-16      -3.2667786483853927e-17  50                   50                   0                    0                    1.2291003419604671e-16    8                            3                          1                    0.98396947240523847  0.11784789715399489 -3.5064855971968316e-19
                 245808.53960562605                2.3063097504154559e-16            -3.7951508160175091e-20              7                                    3                                       3                                      4                                   1                                      12                               6.6951193578405161e-18           10.664921012499585                   14.533488503080102                     14.533488503080102                 1.3325792738542108e-16      -3.2694581262034457e-17  50                   50                   0                    0                    1.2337250956031845e-16    9                            4                          1                    0.98477654403718218  0.11653900437870092  3.5064855971968316e-19
                 238077.29568309008                1.9793639377951114e-16            -3.2694581262034451e-17              7                                    3                                       4                                      5                                   0                                      13                               6.6951193578405161e-18           10.664921012499585                   10.664921012499585                     14.533488503080102                 1.3325792738542108e-16      -6.5389162524068914e-17  100                  100                  0                    0                    1.2337250956031845e-16    10                           0                          2                    0.98477654403718218  0.11653900437870092  3.5064855971968316e-19
                 112235.91159011268                1.9770881886466964e-16            -2.2757491484150243e-19              8                                    4                                       4                                      5                                   0                                      15                               6.5781243021971571e-18           11.284747176615285                   11.284747176615285                     14.533488503080102                 1.3327890039050022e-16      -6.5365196341693844e-17  100                  100                  0                    0                    1.232169905136661e-16    11                           1                          2                    0.98441560755563007  0.11749881117399458 -1.0519456791590494e-18
                 89763.100787769275                1.975704466351742e-16            -1.3837222949543974e-19              9                                    4                                       4                                      6                                   1                                      16                               6.6767106202633175e-18           12.145053977793859                   12.145053977793859                     14.533488503080102                 1.3329212933741463e-16      -6.5317488223927253e-17  100                  100                  0                    0                    1.2291909490142352e-16    12                           2                          2                    0.98369711180613317  0.11920476390139342  2.0162292183881781e-18
                 112757.75782606362                1.9755985657113566e-16            -1.0590064038536554e-20              10                                   5                                       4                                      6                                   1                                      18                               6.7523983602517895e-18           12.512176847586558                   12.512176847586558                     14.533488503080102                 1.3329494011056449e-16      -6.5299044723640154e-17  100                  100                  0                    0                    1.2281156282395952e-16    13                           3                          2                    0.98341934824759247  0.11982169017656576  1.5779185187385741e-18
                 189372.90042522704                1.9723275860119517e-16            -3.2709796994049198e-19              11                                   5                                       4                                      7                                   2                                      19                               7.3456508377825402e-18           12.486606609231519                   12.512176847586558                     14.533488503080102                 1.3332455352005886e-16      -6.5114868616673754e-17  100                  100                  0                    0                    1.216774228600275e-16    14                           4                          2                    0.98064561169689346  0.12582534551167951  7.8895925936928707e-19
                 187847.77681303941                2.6234762721786892e-16             6.5114868616673754e-17              11                                   5                                       5                                      8                                   0                                      20                               7.3456508377825402e-18           12.486606609231519                   12.486606609231519                     14.533488503080102                 1.3332455352005886e-16       0                    0                    0                    0                    0                    1.216774228600275e-16    15                           0                          3                    0.98064561169689346  0.12582534551167951  7.8895925936928707e-19
                 231086.68884961409                2.6213306562912571e-16            -2.145615887432079e-19              12                                   6                                       5                                      8                                   0                                      22                               7.5962741479041541e-18           11.497106117063419                   12.486606609231519                     14.533488503080102                 1.3327548904190002e-16       0                    0                    0                    0                    0                    1.2126130243932152e-16    16                           1                          3                    0.97966958222771083  0.12895200313066996 -8.7662139929920789e-20
                 169122.85782713292                2.6183114883989144e-16            -3.0191678923427813e-19              13                                   6                                       5                                      9                                   1                                      23                               8.2055010984977422e-18           10.829032957488712                   12.486606609231519                     14.533488503080102                 1.3317092133872571e-16       0                    0                    0                    0                    0                    1.2045472640266798e-16    17                           2                          3                    0.97736684390636086  0.13614416614988442  8.7662139929920791e-19
                 474818.24506997829                2.6179580526125545e-16            -3.5343578635988936e-20              14                                   6                                       5                                      9                                   1                                      24                               9.0957065966099238e-18           11.402525918115934                   12.486606609231519                     14.533488503080102                 1.3305031147866132e-16       0                    0                    0                    0                    0                    1.196497871859842e-16    18                           3                          3                    0.97486239793134721  0.14327532492221906  7.8895925936928707e-19
                 361911.48145505256                2.6177779801495646e-16            -1.800724629899218e-20              14                                   7                                       5                                      9                                   1                                      25                               8.7360956626113442e-18           10.831286164079998                   12.486606609231519                     14.533488503080102                 1.3309646939946766e-16       0                    0                    0                    0                    0                    1.1994523295287741e-16    19                           4                          3                    0.97580593259802073  0.14066237907205154  9.6428353922912867e-19
                 365667.12293771596                3.2657131193946503e-16             6.4793513924508577e-17              14                                   7                                       6                                      10                                  0                                      26                               8.7360956626113442e-18           10.831286164079998                   10.831286164079998                     14.533488503080102                 1.3309646939946766e-16       6.4793513924508602e-17  100                 -100                  0                    0                    1.1994523295287741e-16    20                           0                          4                    0.97580593259802073  0.14066237907205154  9.6428353922912867e-19
                 368005.71736419265                3.2614321562171762e-16            -4.2809631774741071e-19              15                                   8                                       6                                      10                                  0                                      28                               8.7287393593815365e-18           12.745350467135447                   12.745350467135447                     14.533488503080102                 1.3306739424905829e-16       6.4703222059985228e-17  100                 -100                  0                    0                    1.1964385995329253e-16    21                           1                          4                    0.97444611536122328  0.14538744632608314  0                  
                 178410.38070527586                3.2546272593928881e-16            -6.8048968242881141e-19              16                                   8                                       6                                      11                                  1                                      29                               9.124618193094413e-18           13.841488017983705                   13.841488017983705                     14.533488503080102                 1.32972919793014e-16       6.4472526279957342e-17  100                 -100                  0                    0                    1.1889266167322302e-16    22                           2                          4                    0.97097178132465867  0.15646003447370133  2.9805127576173068e-18
                 705461.94613635004                3.2532586418541213e-16            -1.3686175387668071e-19              17                                   8                                       6                                      11                                  1                                      30                               1.0857208731554746e-17           17.781201332228957                   17.781201332228957                     17.781201332228957                 1.3275077273844864e-16       6.404721651885777e-17  100                 -100                  0                    0                    1.17670666196551e-16    23                           3                          4                    0.96456651383821934  0.17409638255260776 -3.5064855971968316e-19
                 464637.90698611969                3.2523752282852215e-16            -8.8341356889982464e-20              17                                   9                                       6                                      11                                  1                                      31                               1.0031184593305508e-17           16.195658519294202                   17.781201332228957                     17.781201332228957                 1.3284632162115442e-16       6.4218552628031842e-17  100                 -100                  0                    0                    1.1814146398603038e-16    24                           4                          4                    0.9671468769281899   0.16734673870189007  1.7532427985984158e-19
                 467142.2744537511                 2.6101897020049032e-16            -6.421855262803183e-17              17                                   9                                       7                                      12                                  0                                      32                               1.0031184593305508e-17           16.195658519294202                   16.195658519294202                     17.781201332228957                 1.3284632162115442e-16       0                    0                    0                    0                    0                    1.1814146398603038e-16    25                           0                          5                    0.9671468769281899   0.16734673870189007  1.7532427985984158e-19
                 401313.80008568644                2.6030023265169082e-16            -7.1873754879949803e-19              18                                   10                                      7                                      12                                  0                                      34                               9.5001001484270582e-18           13.510364491511719                   16.195658519294202                     17.781201332228957                 1.3292435972861006e-16       0                    0                    0                    0                    0                    1.1787577277465371e-16    26                           1                          5                    0.96632990600273461  0.17089779196507562  7.8895925936928707e-19
                 252959.89103306283                2.5992837778679094e-16            -3.7185486489988392e-19              19                                   10                                      7                                      13                                  1                                      35                               9.3707954628354972e-18           11.488371214593705                   16.195658519294202                     17.781201332228957                 1.329956956719394e-16       0                    0                    0                    0                    0                    1.1756188665201603e-16    27                           2                          5                    0.96457930228080513  0.17730525328994831  3.5941477371267524e-18
                 237480.84489054116                2.5992798440285234e-16            -3.9338393859097942e-22              19                                   11                                      7                                      13                                  1                                      36                               9.3622237891134213e-18           11.54312867465741                    16.195658519294202                     17.781201332228957                 1.3299422157144854e-16       0                    0                    0                    0                    0                    1.1757153904229039e-16    28                           3                          5                    0.96463792131228687  0.17710459382789981  2.0162292183881781e-18
                 184239.7112779977                 2.5927298528608793e-16            -6.5499911676441832e-19              20                                   11                                      7                                      14                                  2                                      37                               9.0766565875220568e-18           11.019560700395743                   16.195658519294202                     17.781201332228957                 1.331125084277497e-16       0                    0                    0                    0                    0                    1.1708382027081612e-16    29                           4                          5                    0.96111985460804483  0.18894507605931579  2.6298641978976236e-19
                 191890.85629358533                2.5613649702350326e-16            -3.1364882625846674e-18              20                                   11                                      8                                      15                                  0                                      38                               9.0766565875220568e-18           11.019560700395743                   11.019560700395743                     17.781201332228957                 1.331125084277497e-16      -3.136488262584642e-18  25                   0                    25                   0                    1.1708382027081612e-16    30                           0                          6                    0.96111985460804483  0.18894507605931579  2.6298641978976236e-19
                 385679.98576834385                2.5524544990238116e-16            -8.9104712112209733e-19              21                                   11                                      8                                      15                                  0                                      39                               8.6952632199732454e-18           13.171173635588639                   13.171173635588639                     17.781201332228957                 1.331724926778548e-16      -3.3354154539426639e-18  25                   0                    25                   0                    1.1671310945849578e-16    31                           1                          6                    0.95763649907288573  0.2009286418037749   2.8051884777574652e-18
                 641479.3109182159                 2.551362497304144e-16            -1.0920017196675867e-19              22                                   12                                      8                                      15                                  0                                      41                               8.8527648513024093e-18           14.567594091877075                   14.567594091877075                     17.781201332228957                 1.3317997800534684e-16      -3.4328171094787579e-18  25                   0                    25                   0                    1.1653632398324387e-16    32                           2                          6                    0.95576096139895517  0.20679621141438301  4.5584312763558807e-18
                 826965.87214519712                2.5260060856842068e-16            -2.5356411619937246e-18              23                                   12                                      8                                      16                                  1                                      42                               9.4960566120143323e-18           18.632486966652575                   18.632486966652575                     18.632486966652575                 1.3324119926309752e-16      -4.2760524895712843e-18  25                   0                    25                   0                    1.1413940518288012e-16    33                           3                          6                    0.93643611738686905  0.25759352346814962  2.3668777781078615e-18
                 1603516.7271882391                2.5121585917155092e-16            -1.3847493968697561e-18              24                                   12                                      9                                      17                                  0                                      43                               9.4080404826080859e-18           16.298649246316206                   18.632486966652575                     18.632486966652575                 1.3329951804818923e-16      -4.4501243063308748e-18  25                   0                    25                   0                    1.1295842494708445e-16    34                           4                          6                    0.93188628712829402  0.2680797774898116   3.5064855971968317e-18
# Table End
