# ODT 1.0
# Table Start
# Title: mmArchive Data Table, Fri Apr 29 15:50:31 EDT 2011
# Columns: {Oxs_CGEvolve::Max mxHxm} {Oxs_CGEvolve::Total energy} {Oxs_CGEvolve::Delta E} {Oxs_CGEvolve::Bracket count} {Oxs_CGEvolve::Line min count} {Oxs_CGEvolve::Cycle count} {Oxs_CGEvolve::Cycle sub count} {Oxs_CGEvolve::Energy calc count} Oxs_Demag::Energy    Oxs_MinDriver::Iteration {Oxs_MinDriver::Stage iteration} Oxs_MinDriver::Stage Oxs_MinDriver::mx    Oxs_MinDriver::my    Oxs_MinDriver::mz    {Oxs_MinDriver::Max Spin Ang} {Oxs_MinDriver::Stage Max Spin Ang} {Oxs_MinDriver::Run Max Spin Ang} Oxs_Demag::hx        {Oxs_Demag::octant hx} Oxs_Demag::hy        {Oxs_Demag::octant hy} Oxs_Demag::hz        {Oxs_Demag::octant hz}
# Units:              A/m                         J                          J                         {}                             {}                           {}                            {}                               {}                         J                       {}                           {}                         {}                 {}                   {}                   {}                         deg                              deg                                deg                     {}                        {}                {}                        {}                {}                        {}          
              4.5725893469357908e-08         3.447752608270802e-28       3.447752608270802e-28        0                              0                            1                             1                                1                           3.4477526082708253e-28    0                            0                          0                    1                    0                    0                        0                                0                                  0                           2.1949074806571796e-12   2.1949122518828683e-12  -1.6177811532852781e-32   8.8299226175066251e-18  -1.6177811532852781e-32   8.8299226175076466e-18 
# Table End
