# ODT 1.0
# Table Start
# Title: mmArchive Data Table, Fri Apr 29 15:50:33 EDT 2011
# Columns: {Oxs_CGEvolve:evolver:Max mxHxm} {Oxs_CGEvolve:evolver:Total energy} {Oxs_CGEvolve:evolver:Delta E} {Oxs_CGEvolve:evolver:Bracket count} {Oxs_CGEvolve:evolver:Line min count} {Oxs_CGEvolve:evolver:Cycle count} {Oxs_CGEvolve:evolver:Cycle sub count} {Oxs_CGEvolve:evolver:Energy calc count} Oxs_UniaxialAnisotropy::Energy Oxs_UniformExchange::Energy {Oxs_UniformExchange::Max Spin Ang} {Oxs_UniformExchange::Stage Max Spin Ang} {Oxs_UniformExchange::Run Max Spin Ang} Oxs_Demag::Energy    Oxs_MinDriver::Iteration {Oxs_MinDriver::Stage iteration} Oxs_MinDriver::Stage Oxs_MinDriver::mx    Oxs_MinDriver::my    Oxs_MinDriver::mz    {Oxs_MinDriver::Max Spin Ang} {Oxs_MinDriver::Stage Max Spin Ang} {Oxs_MinDriver::Run Max Spin Ang}
# Units:                 A/m                                 J                                J                                 {}                                   {}                                   {}                                   {}                                      {}                                  J                             J                              deg                                    deg                                      deg                           J                       {}                           {}                         {}                 {}                   {}                   {}                         deg                              deg                                deg               
                  1430501.0118284083                2.3954822526917778e-14               2.3954822526917778e-14               0                                    0                                    1                                    1                                       1                                   4.7927310428659639e-15          1.2931462458752564e-15             179.73054836777422                     179.73054836777422                       179.73054836777422             1.786894523817641e-14    0                            0                          0                    0.0040945789823924102  0.0041128359827668293  0.64177249206554909      179.73054836777422               179.73054836777422                 179.73054836777422        
                  1430155.1063710011                2.3953635816000699e-14              -1.186710917078537e-18               1                                    0                                    1                                    1                                       2                                   4.7927359074358918e-15          1.2927606606916421e-15             179.73688734218786                     179.73688734218786                       179.73688734218786             1.786813924787306e-14    1                            1                          0                    0.0040955985882211591  0.0041141880948841201  0.64173557091197564      179.73688734218786               179.73688734218786                 179.73688734218786        
                  1427695.262761832                 2.3945335976533248e-14              -8.2998394674508359e-18               2                                    0                                    1                                    1                                       3                                   4.7927694897315105e-15          1.2900665049277915e-15             179.78096739253422                     179.78096739253422                       179.78096739253422             1.7862499981873879e-14    2                            2                          0                    0.0041027348680987121  0.0041236510919864695  0.64147698082256177      179.78096739253422               179.78096739253422                 179.78096739253422        
# Table End
