# ODT 1.0
# Table Start
# Title: mmArchive Data Table, Wed Jun 11 23:39:58 EDT 2014
# Columns: {Oxs_CGEvolve:evolver:Max mxHxm} {Oxs_CGEvolve:evolver:Total energy} {Oxs_CGEvolve:evolver:Delta E} {Oxs_CGEvolve:evolver:Bracket count} {Oxs_CGEvolve:evolver:Line min count} {Oxs_CGEvolve:evolver:Conjugate cycle count} {Oxs_CGEvolve:evolver:Cycle count} {Oxs_CGEvolve:evolver:Cycle sub count} {Oxs_CGEvolve:evolver:Energy calc count} Oxs_UniaxialAnisotropy::Energy Oxs_UniformExchange::Energy {Oxs_UniformExchange::Max Spin Ang} {Oxs_UniformExchange::Stage Max Spin Ang} {Oxs_UniformExchange::Run Max Spin Ang} Oxs_Demag::Energy    Oxs_MinDriver::Iteration {Oxs_MinDriver::Stage iteration} Oxs_MinDriver::Stage Oxs_MinDriver::mx    Oxs_MinDriver::my    Oxs_MinDriver::mz    {Oxs_MinDriver::Max Spin Ang} {Oxs_MinDriver::Stage Max Spin Ang} {Oxs_MinDriver::Run Max Spin Ang}
# Units:                 A/m                                 J                                J                                 {}                                   {}                                        {}                                      {}                                   {}                                      {}                                  J                             J                              deg                                    deg                                      deg                           J                       {}                           {}                         {}                 {}                   {}                   {}                         deg                              deg                                deg               
                  1430501.0118224146                2.395482252702617e-14               2.395482252702617e-14               0                                    0                                         1                                       1                                    0                                       1                                   4.7927310428659639e-15          1.2931462458752564e-15             179.73054836777277                     179.73054836777277                       179.73054836777277             1.7868945238284951e-14    0                            0                          0                    0.0040945789823923131  0.0041128359827668319  0.64177249206555498      179.73054836777277               179.73054836777277                 179.73054836777277        
                  1430155.1063650118                2.3953635816109086e-14              -1.1867109170837694e-18               1                                    0                                         1                                       1                                    0                                       2                                   4.7927359074358926e-15          1.2927606606916415e-15             179.73688734219044                     179.73688734219044                       179.73688734219044             1.7868139247981554e-14    1                            1                          0                    0.004095598588221094  0.0041141880948841591  0.6417355709119732       179.73688734219044               179.73688734219044                 179.73688734219044        
                  1335648.2126379756                2.3721091770706525e-14              -2.3254404540256227e-16               2                                    0                                         1                                       1                                    0                                       3                                   4.79336361930807e-15          1.2192760594623831e-15             179.37512837507694                     179.73688734219044                       179.73688734219044             1.770845209193607e-14    2                            2                          0                    0.0042998923853995504  0.0043846958059379649  0.63421470431641169      179.37512837507694               179.73688734219044                 179.73688734219044        
                  1201407.0042120668                2.3492800833545086e-14              -2.2829093716143775e-16               3                                    0                                         2                                       2                                    0                                       4                                   4.7935742897562936e-15          1.1547229740684724e-15             179.09422568847657                     179.73688734219044                       179.73688734219044             1.7544503569720322e-14    3                            3                          0                    0.0045355952226140018  0.0046935583554630943  0.62615560965735084      179.09422568847657               179.73688734219044                 179.73688734219044        
                  1037788.5943365056                2.3261635775194577e-14              -2.311650583505105e-16               4                                    0                                         3                                       3                                    0                                       5                                   4.7936959576760108e-15          1.0979812076343406e-15             178.18619148240288                     179.73688734219044                       179.73688734219044             1.7369958609884226e-14    4                            4                          0                    0.0048175807449619811  0.005059814940653413  0.61725424509435589      178.18619148240288               179.73688734219044                 179.73688734219044        
# Table End
