# ODT 1.0
# Table Start
# Title: mmArchive Data Table, Fri Aug 06 20:48:38 EDT 2010
# Columns: {Oxs_RungeKuttaEvolve:evolve:Total energy} {Oxs_RungeKuttaEvolve:evolve:Energy calc count} {Oxs_RungeKuttaEvolve:evolve:Max dm/dt} Oxs_RungeKuttaEvolve:evolve:dE/dt {Oxs_RungeKuttaEvolve:evolve:Delta E} Oxs_CubicAnisotropy::Energy Oxs_UniformExchange::Energy {Oxs_UniformExchange::Max Spin Ang} {Oxs_UniformExchange::Stage Max Spin Ang} {Oxs_UniformExchange::Run Max Spin Ang} Oxs_Demag::Energy    Oxs_ScriptUZeeman::Energy Oxs_ScriptUZeeman::B Oxs_ScriptUZeeman::Bx Oxs_ScriptUZeeman::By Oxs_ScriptUZeeman::Bz Oxs_TimeDriver::Iteration {Oxs_TimeDriver::Stage iteration} Oxs_TimeDriver::Stage Oxs_TimeDriver::mx   Oxs_TimeDriver::my   Oxs_TimeDriver::mz   {Oxs_TimeDriver::Last time step} {Oxs_TimeDriver::Simulation time}
# Units:                       J                                            {}                                        deg/ns                                 J/s                                  J                                J                           J                              deg                                    deg                                      deg                           J                        J                      mT                   mT                    mT                    mT                      {}                            {}                          {}                   {}                   {}                   {}                          s                                 s                
                       1.0249756078107448e-18                          1                                           2015.9634500858697                  -3.289648676318933e-09                 0                               -3.4793325106370619e-22         2.9029463842756e-20             3.4850616973328505                     3.4850616973328505                       3.4850616973328505             9.9629407721905264e-19   -1.5140367238591063e-35     200                  0                     200                   0                       0                             0                           0                     1.2322632942530805e-16  2.3903386392750037e-18  0.99898871435022907        0                                0                         
                       1.0249601058019782e-18                          7                                           2016.1514620543405                  -3.2896082029950912e-09                -1.5502008766703555e-23             -3.4793802799378389e-22         2.9029463842568733e-20             3.4850619877219859                     3.4850619877219859                       3.4850619877219859             9.9629425140747958e-19   -1.5671420076377776e-23     199.99987686054789   0                     199.99987686054789    0                       1                             1                           0                     0.00016561911800173671  2.5114470713529395e-06  0.99898870061834755        4.7123870224905859e-15              4.7123870224905859e-15       
                       1.0248981008467893e-18                          13                                          2016.8691303026794                  -3.2892793875193817e-09                -6.200495518903552e-23             -3.4805267063357545e-22         2.9029463838713792e-20             3.4850636844644409                     3.4850636844644409                       3.4850636844644409             9.9629843178601232e-19   -8.1742107303355582e-23     199.99692153644196   0                     199.99692153644196    0                       2                             2                           0                     0.00082807474965115359  1.3099898321028295e-05  0.99898837106348637        1.8849548089962344e-14              2.3561935112452931e-14       
                       1.0248981008467893e-18                          14                                          2016.8691303026794                  -3.2892793875193838e-09                 0                               -3.4805267063357545e-22         2.9029463838713792e-20             3.4850636844644409                     3.4850636844644409                       3.4850636844644409             9.9629843178601232e-19   -8.1742107303355582e-23     199.99692153644196   0                     199.99692153644196    0                       3                             0                           1                     0.00082807474965115359  1.3099898321028295e-05  0.99898837106348637        0                                2.3561935112452931e-14       
                       1.0246502250325917e-18                          20                                          2019.5013907246005                  -3.2849974142998428e-09                -2.4787581419728399e-22             -3.5003924550155988e-22         2.9029464297611909e-20             3.4850790215869889                     3.4850790215869889                       3.4850790215869889             9.9637087041918344e-19   -4.0007043870196088e-22     199.94570285668226   0                     199.94570285668226    0                       4                             1                           1                     0.003477308804369379  6.4131263077995057e-05  0.99898266031193883        7.5398192359849375e-14              9.8960127472302306e-14       
                       1.0236689603825089e-18                          26                                          2025.1483002954317                  -3.2018154759811907e-09                -9.8126465008326491e-22             -3.8231888774796482e-22         2.9029623914212222e-20             3.4852749816056736                     3.4852749816056736                       3.4852749816056736             9.9754787490633511e-19   -2.5262195502906642e-21     199.1122930923722    0                     199.1122930923722     0                       5                             2                           1                     0.014048539602234955  0.0004066477969407237  0.9988898438306425         3.015927694393975e-13              4.0055289691169983e-13       
                       1.0236689603825089e-18                          27                                          2025.1483002954317                  -3.2018154759811998e-09                 0                               -3.8231888774796482e-22         2.9029623914212222e-20             3.4852749816056736                     3.4852749816056736                       3.4852749816056736             9.9754787490633511e-19   -2.5262195502906642e-21     199.1122930923722    0                     199.1122930923722     0                       6                             0                           2                     0.014048539602234955  0.0004066477969407237  0.9988898438306425         0                                4.0055289691169983e-13       
                       1.0210846184021156e-18                          33                                          1982.1000823654717                  -1.524674414383681e-09                -2.5843419803930461e-21             -7.5279054191030928e-22         2.9046365568777927e-20             3.4879139973605038                     3.4879139973605038                       3.4879139973605038             1.011062834516661e-18   -1.827179114141301e-20     189.41335612624664   0                     189.41335612624664    0                       7                             1                           2                     0.048171445158081985  0.0030918322943668764  0.99782148925579939        9.9999999999999998e-13              1.4005528969116998e-12       
                       1.0210846184021156e-18                          34                                          1982.1000823654717                  -1.524674414383681e-09                 0                               -7.5279054191030928e-22         2.9046365568777927e-20             3.4879139973605038                     3.4879139973605038                       3.4879139973605038             1.011062834516661e-18   -1.827179114141301e-20     189.41335612624664   0                     189.41335612624664    0                       8                             0                           3                     0.048171445158081985  0.0030918322943668764  0.99782148925579939        0                                1.4005528969116998e-12       
                       1.0208436659956935e-18                          46                                          1925.6846995308995                   9.0394389416693665e-10                -2.4095240642207689e-22             -1.1329083737832662e-21         2.908205775679296e-20             3.4947552412221916                     3.4947552412221916                       3.4947552412221916             1.0249567062463236e-18   -3.2062189633639793e-20     179.20080230428948   0                     179.20080230428948    0                       9                             1                           3                     0.067033169938081769  0.0057345406377395476  0.99671935868957384        5.8956583990285507e-13              1.9901187368145549e-12       
                       1.0216838231056872e-18                          52                                          1886.671369594917                    3.2800117361709764e-09                 8.4015710999371451e-22             -1.4499324453636231e-21         2.9120687262998211e-20             3.4950232916918864                     3.4950232916918864                       3.4950232916918864             1.0365733708377875e-18   -4.2560302549734956e-20     170.46715958994687   0                     170.46715958994687    0                       10                            2                           3                     0.079374499336080415  0.0080021997462196275  0.99579552530279236        4.1043416009714491e-13              2.4005528969116997e-12       
                       1.0216838231056872e-18                          53                                          1886.671369594917                    3.2800117361709768e-09                 0                               -1.4499324453636231e-21         2.9120687262998211e-20             3.4950232916918864                     3.4950232916918864                       3.4950232916918864             1.0365733708377875e-18   -4.2560302549734956e-20     170.46715958994687   0                     170.46715958994687    0                       11                            0                           4                     0.079374499336080415  0.0080021997462196275  0.99579552530279236        0                                2.4005528969116997e-12       
                       1.0243452413795261e-18                          59                                          1824.2541061629724                   7.0166398837063479e-09                 2.6614182738390825e-21             -1.896421067546346e-21         2.9188671929559868e-20             3.4978322264071564                     3.4978322264071564                       3.4978322264071564             1.052980038723613e-18   -5.5927048206100309e-20     157.80372553632489   0                     157.80372553632489    0                       12                            1                           4                     0.093985734416611122  0.011359260310598612  0.99448723685127571        5.229242029353478e-13              2.9234770998470474e-12       
                       1.0286112031861194e-18                          65                                          1748.9141226957649                   1.0926165201768647e-08                 4.2659618065933902e-21             -2.3272177220956446e-21         2.9266850819699554e-20             3.5023427066261466                     3.5023427066261466                       3.5023427066261466             1.0688637395544587e-18   -6.7192169465943052e-20     145.14044513650083   0                     145.14044513650083    0                       13                            2                           4                     0.10610735661998032  0.014838008614105334  0.99321694992830478        4.7707579706465218e-13              3.4005528969116995e-12       
                       1.0286112031861194e-18                          66                                          1748.9141226957649                   1.0926165201768652e-08                 0                               -2.3272177220956446e-21         2.9266850819699554e-20             3.5023427066261466                     3.5023427066261466                       3.5023427066261466             1.0688637395544587e-18   -6.7192169465943052e-20     145.14044513650083   0                     145.14044513650083    0                       14                            0                           5                     0.10610735661998032  0.014838008614105334  0.99321694992830478        0                                3.4005528969116995e-12       
                       1.0352484440049087e-18                          72                                          1630.6670439371346                   1.5309021358424091e-08                 6.6372408187891298e-21             -2.789792295045182e-21         2.9367250564711926e-20             3.4988198245748277                     3.5023427066261466                       3.5023427066261466             1.0859737656917476e-18   -7.730277995650566e-20     130.99191725396958   0                     130.99191725396958    0                       15                            1                           5                     0.11761471243806022  0.018914550269009584  0.99184425831652301        5.0624312340489201e-13              3.9067960203165918e-12       
                       1.0438521785503263e-18                          78                                          1506.3793475624525                   1.9500571215693611e-08                 8.6037345454176551e-21             -3.2302040338157177e-21         2.9488530120652429e-20             3.4946468842565368                     3.5023427066261466                       3.5023427066261466             1.1023030920203827e-18   -8.4709239556893086e-20     116.91056974154885   0                     116.91056974154885    0                       16                            2                           5                     0.12744291795176771  0.023223218699469743  0.99052904607906089        4.9375687659510797e-13              4.4005528969116993e-12       
                       1.0438521785503263e-18                          79                                          1506.3793475624525                   1.9500571215693614e-08                 0                               -3.2302040338157177e-21         2.9488530120652429e-20             3.4946468842565368                     3.4946468842565368                       3.5023427066261466             1.1023030920203827e-18   -8.4709239556893086e-20     116.91056974154885   0                     116.91056974154885    0                       17                            0                           6                     0.12744291795176771  0.023223218699469743  0.99052904607906089        0                                4.4005528969116993e-12       
                       1.0545211654908062e-18                          85                                          1374.5368152648823                   2.3325229843312698e-08                 1.0668986940479756e-20             -3.6497396162129608e-21         2.9639139896669679e-20             3.5045738255384538                     3.5045738255384538                       3.5045738255384538             1.1178761912083479e-18   -8.9344425997998236e-20     102.84563521517222   0                     102.84563521517222    0                       18                            1                           6                     0.13593385710976125  0.027843703735025351  0.98926882512755865        4.9720024366427713e-13              4.8977531405759765e-12       
                       1.0637018107165391e-18                          91                                          1273.9026456326542                   2.5771814411183916e-08                 9.1806452257329939e-21             -3.9430597487006146e-21         2.9772826817647628e-20             3.5238042866735437                     3.5238042866735437                       3.5238042866735437             1.1287618819817623e-18   -9.0889838334170146e-20     92.567742055568857   0                     92.567742055568857    0                       19                            2                           6                     0.14139497721098077  0.031470313300881306  0.9883836317701743         3.7343876263689755e-13              5.2711919032128743e-12       
                       1.0637018107165391e-18                          92                                          1273.9026456326542                   2.577181441118392e-08                 0                               -3.9430597487006146e-21         2.9772826817647628e-20             3.5238042866735437                     3.5238042866735437                       3.5238042866735437             1.1287618819817623e-18   -9.0889838334170146e-20     92.567742055568857   0                     92.567742055568857    0                       20                            0                           7                     0.14139497721098077  0.031470313300881306  0.9883836317701743         0                                5.2711919032128743e-12       
# Table End
