# ODT 1.0
# Table Start
# Title: mmArchive Data Table, Wed Jun 11 15:39:51 EDT 2014
# Columns: {Oxs_RungeKuttaEvolve:evolve:Total energy} {Oxs_RungeKuttaEvolve:evolve:Energy calc count} {Oxs_RungeKuttaEvolve:evolve:Max dm/dt} Oxs_RungeKuttaEvolve:evolve:dE/dt {Oxs_RungeKuttaEvolve:evolve:Delta E} Oxs_CubicAnisotropy::Energy Oxs_UniformExchange::Energy {Oxs_UniformExchange::Max Spin Ang} {Oxs_UniformExchange::Stage Max Spin Ang} {Oxs_UniformExchange::Run Max Spin Ang} Oxs_Demag::Energy    Oxs_ScriptUZeeman::Energy Oxs_ScriptUZeeman::B Oxs_ScriptUZeeman::Bx Oxs_ScriptUZeeman::By Oxs_ScriptUZeeman::Bz Oxs_TimeDriver::Iteration {Oxs_TimeDriver::Stage iteration} Oxs_TimeDriver::Stage Oxs_TimeDriver::mx   Oxs_TimeDriver::my   Oxs_TimeDriver::mz   {Oxs_TimeDriver::Last time step} {Oxs_TimeDriver::Simulation time}
# Units:                       J                                            {}                                        deg/ns                                 J/s                                  J                                J                           J                              deg                                    deg                                      deg                           J                        J                      mT                   mT                    mT                    mT                      {}                            {}                          {}                   {}                   {}                   {}                          s                                 s                
                       1.0249756078139517e-18                          1                                           2015.9634500852731                  -3.2896486763189433e-09                 0                               -3.4793325106370619e-22         2.9029463842756e-20             3.4850616973331774                     3.4850616973331774                       3.4850616973331774             9.9629407722225951e-19   -1.7643205933132877e-35     200                  0                     200                   0                       0                             0                           0                     1.2308132967236272e-16  2.8275031888496798e-18  0.99898871435022807        0                                0                         
                       1.0249601058051851e-18                          7                                           2016.1514620513542                  -3.2896082029950912e-09                -1.5502008766718731e-23             -3.4793802799378384e-22         2.9029463842568733e-20             3.4850619877222329                     3.4850619877222329                       3.4850619877222329             9.9629425141068645e-19   -1.5671420076387092e-23     199.99987686054789   0                     199.99987686054789    0                       1                             1                           0                     0.00016561911800178625  2.5114470713531157e-06  0.99898870061834788        4.7123870224919806e-15              4.7123870224919806e-15       
                       1.024898100849996e-18                          13                                          2016.8691302996733                  -3.2892793875193792e-09                -6.2004955189017288e-23             -3.480526706335754e-22         2.9029463838713786e-20             3.4850636844647549                     3.4850636844647549                       3.4850636844647549             9.9629843178921918e-19   -8.1742107303380832e-23     199.99692153644193   0                     199.99692153644193    0                       2                             2                           0                     0.00082807474965139916  1.3099898321032085e-05  0.99898837106348526        1.8849548089967922e-14              2.3561935112459902e-14       
                       1.0246502250357987e-18                          19                                          2019.5013907198895                  -3.2849974142998411e-09                -2.4787581419735772e-22             -3.500392455015603e-22         2.9029464297611849e-20             3.4850790215871221                     3.4850790215871221                       3.4850790215871221             9.963708704223905e-19   -4.0007043870206033e-22     199.94570285668229   0                     199.94570285668229    0                       3                             3                           0                     0.0034773088043704142  6.4131263078011876e-05  0.99898266031193861        7.539819235987169e-14              9.8960127472331588e-14       
                       1.0236689603857152e-18                          25                                          2025.1483003050639                  -3.2018154759811514e-09                -9.8126465008353875e-22             -3.8231888774797916e-22         2.9029623914211584e-20             3.4852749816052202                     3.4852749816052202                       3.4852749816052202             9.9754787490954255e-19   -2.5262195502911223e-21     199.11229309237174   0                     199.11229309237174    0                       4                             4                           0                     0.014048539602239143  0.0004066477969407991  0.99888984383064094        3.0159276943948676e-13              4.0055289691181832e-13       
                       1.0236689603857152e-18                          26                                          2025.1483003050639                  -3.2018154759811514e-09                 0                               -3.8231888774797916e-22         2.9029623914211584e-20             3.4852749816052202                     3.4852749816052202                       3.4852749816052202             9.9754787490954255e-19   -2.5262195502911223e-21     199.11229309237174   0                     199.11229309237174    0                       5                             0                           1                     0.014048539602239143  0.0004066477969407991  0.99888984383064094        0                                4.0055289691181832e-13       
                       1.0210846184053221e-18                          32                                          1982.1000823890688                  -1.5246744143838925e-09                -2.5843419803930329e-21             -7.5279054191033167e-22         2.9046365568774328e-20             3.487913997358683                      3.487913997358683                        3.487913997358683              1.0110628345198663e-18   -1.8271791141408192e-20     189.41335612624491   0                     189.41335612624491    0                       6                             1                           1                     0.048171445158086051  0.0030918322943660989  0.99782148925579872        9.9999999999999998e-13              1.4005528969118183e-12       
                       1.0210846184053221e-18                          33                                          1982.1000823890688                  -1.5246744143838925e-09                 0                               -7.5279054191033167e-22         2.9046365568774328e-20             3.487913997358683                      3.487913997358683                        3.487913997358683              1.0110628345198663e-18   -1.8271791141408192e-20     189.41335612624491   0                     189.41335612624491    0                       7                             0                           2                     0.048171445158086051  0.0030918322943660989  0.99782148925579872        0                                1.4005528969118183e-12       
                       1.0208436659987347e-18                          45                                          1925.6846995307637                   9.0394389323138266e-10                -2.4095240658745822e-22             -1.1329083736507079e-21         2.9082057756773478e-20             3.4947552412100831                     3.4947552412100831                       3.4947552412100831             1.0249567062446717e-18   -3.2062189629059781e-20     179.20080230789711   0                     179.20080230789711    0                       8                             1                           2                     0.067033169932441419  0.0057345406368049445  0.99671935868995876        5.8956583972030978e-13              1.9901187366321281e-12       
                       1.0216838231088929e-18                          51                                          1886.6713695830508                   3.2800117361692038e-09                 8.4015711015819701e-22             -1.449932445363625e-21         2.9120687262994101e-20             3.4950232916879966                     3.4950232916879966                       3.4950232916879966             1.0365733708409815e-18   -4.2560302549719097e-20     170.46715958994417   0                     170.46715958994417    0                       9                             2                           2                     0.079374499336084411  0.0080021997462167722  0.99579552530279247        4.104341602796902e-13              2.4005528969118185e-12       
                       1.0216838231088929e-18                          52                                          1886.6713695830508                   3.2800117361692038e-09                 0                               -1.449932445363625e-21         2.9120687262994101e-20             3.4950232916879966                     3.4950232916879966                       3.4950232916879966             1.0365733708409815e-18   -4.2560302549719097e-20     170.46715958994417   0                     170.46715958994417    0                       10                            0                           3                     0.079374499336084411  0.0080021997462167722  0.99579552530279247        0                                2.4005528969118185e-12       
                       1.0243452413835547e-18                          58                                          1824.2541061642321                   7.0166398846168504e-09                 2.6614182746618672e-21             -1.8964210676504026e-21         2.9188671929573259e-20             3.4978322264122261                     3.4978322264122261                       3.4978322264122261             1.0529800387306299e-18   -5.5927048208998015e-20     157.80372553331733   0                     157.80372553331733    0                       11                            1                           3                     0.093985734419745615  0.011359260311403635  0.99448723685097029        5.2292420305279533e-13              2.9234770999646137e-12       
                       1.028611203189322e-18                          64                                          1748.9141226886288                   1.0926165201763767e-08                 4.2659618057673844e-21             -2.3272177220955916e-21         2.9266850819693108e-20             3.5023427066262025                     3.5023427066262025                       3.5023427066262025             1.068863739557639e-18   -6.7192169465914331e-20     145.14044513649759   0                     145.14044513649759    0                       12                            2                           3                     0.10610735661998481  0.014838008614099325  0.993216949928304          4.7707579694720465e-13              3.4005528969118183e-12       
                       1.028611203189322e-18                          65                                          1748.9141226886288                   1.0926165201763767e-08                 0                               -2.3272177220955916e-21         2.9266850819693108e-20             3.5023427066262025                     3.5023427066262025                       3.5023427066262025             1.068863739557639e-18   -6.7192169465914331e-20     145.14044513649759   0                     145.14044513649759    0                       13                            0                           4                     0.10610735661998481  0.014838008614099325  0.993216949928304          0                                3.4005528969118183e-12       
                       1.0352484440091061e-18                          71                                          1630.6670439239158                   1.5309021358983166e-08                 6.6372408197840599e-21             -2.7897922951042573e-21         2.9367250564717908e-20             3.4988198245793432                     3.5023427066262025                       3.5023427066262025             1.0859737656971127e-18   -7.7302779957620195e-20     130.99191725211648   0                     130.99191725211648    0                       14                            1                           4                     0.11761471243945382  0.018914550269549898  0.99184425831634604        5.0624312347007398e-13              3.9067960203818922e-12       
                       1.043852178553522e-18                          77                                          1506.3793475840744                   1.9500571215684796e-08                 8.6037345444158782e-21             -3.2302040338155743e-21         2.9488530120640242e-20             3.494646884253668                      3.5023427066262025                       3.5023427066262025             1.1023030920235516e-18   -8.470923955685423e-20     116.91056974154549   0                     116.91056974154549    0                       15                            2                           4                     0.12744291795177257  0.023223218699459761  0.99052904607906134        4.93756876529926e-13              4.400552896911818e-12       
                       1.043852178553522e-18                          78                                          1506.3793475840744                   1.9500571215684796e-08                 0                               -3.2302040338155743e-21         2.9488530120640242e-20             3.494646884253668                      3.494646884253668                        3.5023427066262025             1.1023030920235516e-18   -8.470923955685423e-20     116.91056974154549   0                     116.91056974154549    0                       16                            0                           5                     0.12744291795177257  0.023223218699459761  0.99052904607906134        0                                4.400552896911818e-12       
                       1.0545211654952079e-18                          84                                          1374.5368152304318                   2.3325229843670699e-08                 1.0668986941685828e-20             -3.6497396162549454e-21         2.9639139896670636e-20             3.5045738255445475                     3.5045738255445475                       3.5045738255445475             1.1178761912130787e-18   -8.9344425998286608e-20     102.84563521371882   0                     102.84563521371882    0                       17                            1                           5                     0.13593385711057995  0.027843703735508634  0.98926882512743242        4.9720024371619261e-13              4.8977531406280105e-12       
                       1.06370181072151e-18                          90                                          1273.902645595351                    2.5771814411584646e-08                 9.1806452263020986e-21             -3.9430597487527885e-21         2.9772826817655904e-20             3.5238042866633363                     3.5238042866633363                       3.5238042866633363             1.1287618819868677e-18   -9.0889838334260869e-20     92.567742053692427   0                     92.567742053692427    0                       18                            2                           5                     0.1413949772119274   0.031470313301550611  0.98838363177001798        3.7343876265421351e-13              5.2711919032822242e-12       
                       1.0670843269765954e-18                          96                                          1233.3717226816218                   2.6514330646012025e-08                 3.3825162550853993e-21             -4.0396635195295522e-21         2.9823035502554508e-20             3.5290657002838368                     3.5290657002838368                       3.5290657002838368             1.1323447641704027e-18   -9.1043809176832305e-20     89.091588730703464   0                     89.091588730703464    0                       19                            3                           5                     0.14310710705961854  0.032753606131889573  0.98809138855652534        1.2936099362959386e-13              5.4005528969118186e-12       
                       1.0670843269765954e-18                          97                                          1233.3717226816218                   2.6514330646012025e-08                 0                               -4.0396635195295522e-21         2.9823035502554508e-20             3.5290657002838368                     3.5290657002838368                       3.5290657002838368             1.1323447641704027e-18   -9.1043809176832305e-20     89.091588730703464   0                     89.091588730703464    0                       20                            0                           6                     0.14310710705961854  0.032753606131889573  0.98809138855652534        0                                5.4005528969118186e-12       
                       1.0804068650196661e-18                          103                                         1103.804319060858                    2.8737511379300449e-08                 1.3322538043070828e-20             -4.3743657156473107e-21         3.0024383486724154e-20             3.5360577796200197                     3.5360577796200197                       3.5360577796200197             1.1447422182365356e-18   -8.9985370987946222e-20     76.64720439888157    0                     76.64720439888157     0                       21                            1                           6                     0.14868602047154914  0.037628854550447274  0.98707630466148732        4.8097522585630966e-13              5.8815281227681278e-12       
                       1.0914705567292677e-18                          109                                         1007.9980321866403                   2.9844272392044461e-08                 1.106369170960146e-20             -4.6086033000122045e-21         3.0195949982165827e-20             3.5446342305042826                     3.5446342305042826                       3.5446342305042826             1.1533938641957366e-18   -8.7510654148622654e-20     67.510458411113348   0                     67.510458411113348    0                       22                            2                           6                     0.15222521812474926  0.04154657996142385  0.98636375913978447        3.771000809607755e-13              6.2586282037289037e-12       
                       1.0957260975305928e-18                          115                                         979.06836589421528                   3.0111043876688796e-08                 4.2555408013251756e-21             -4.6902242809327677e-21         3.0263322548331996e-20             3.5461025529823718                     3.5461025529823718                       3.5461025529823718             1.1564010678103016e-18   -8.624806854710791e-20     64.229897735531921   0                     64.229897735531921    0                       23                            3                           6                     0.15337566323990159  0.043038542311930557  0.98611510753191778        1.4192469318291483e-13              6.4005528969118184e-12       
                       1.0957260975305928e-18                          116                                         979.06836589421528                   3.0111043876688796e-08                 0                               -4.6902242809327677e-21         3.0263322548331996e-20             3.5461025529823718                     3.5461025529823718                       3.5461025529823718             1.1564010678103016e-18   -8.624806854710791e-20     64.229897735531921   0                     64.229897735531921    0                       24                            0                           7                     0.15337566323990159  0.043038542311930557  0.98611510753191778        0                                6.4005528969118184e-12       
                       1.1106829478747099e-18                          122                                         859.16177867212718                   3.0408246511548068e-08                 1.4956850344117165e-20             -4.9461989847777137e-21         3.0508286207391341e-20             3.5572192094709889                     3.5572192094709889                       3.5572192094709889             1.165794036591477e-18   -8.0673175939380681e-20     53.557917664456596   0                     53.557917664456596    0                       25                            1                           7                     0.1566410842562482   0.048278178629072466  0.98533432988544889        4.9297345978276586e-13              6.8935263566945843e-12       
                       1.1259734719538086e-18                          128                                         789.4494954849539                    2.9752953645341135e-08                 1.5290524079098557e-20             -5.1664201629118403e-21         3.0777862951071438e-20             3.5728567775636706                     3.5728567775636706                       3.5728567775636706             1.173802592356324e-18   -7.3440563190675051e-20     43.808194824158178   0                     43.808194824158178    0                       26                            2                           7                     0.15889577168008273  0.053731138986153386  0.98466187859145593        5.0702654021723412e-13              7.400552896911819e-12       
                       1.1259734719538086e-18                          129                                         789.4494954849539                    2.9752953645341135e-08                 0                               -5.1664201629118403e-21         3.0777862951071438e-20             3.5728567775636706                     3.5728567775636706                       3.5728567775636706             1.173802592356324e-18   -7.3440563190675051e-20     43.808194824158178   0                     43.808194824158178    0                       27                            0                           8                     0.15889577168008273  0.053731138986153386  0.98466187859145593        0                                7.400552896911819e-12       
                       1.1411652329478351e-18                          135                                         775.88168383017455                   2.8195949599196374e-08                 1.5191760994026553e-20             -5.35135713273113e-21         3.1073239437288404e-20             3.5724224990242113                     3.5728567775636706                       3.5728567775636706             1.1804383936581815e-18   -6.4995043014903705e-20     35.077701012191369   0                     35.077701012191369    0                       28                            1                           8                     0.16016586788441697  0.059387428351757532  0.98409727610635167        5.2310455726512254e-13              7.9236574541769405e-12       
                       1.1541465166390177e-18                          141                                         766.86656244438529                   2.6161666686380839e-08                 1.2981283691182744e-20             -5.4864905984610672e-21         3.1350377865868032e-20             3.563186807385915                      3.5728567775636706                       3.5728567775636706             1.1852053986631828e-18   -5.6922769291571882e-20     28.267739830063579   0                     28.267739830063579    0                       29                            2                           8                     0.16049185932017734  0.064541691152961322  0.98368533636190358        4.7689544273487744e-13              8.4005528969118188e-12       
                       1.1541465166390177e-18                          142                                         766.86656244438529                   2.6161666686380839e-08                 0                               -5.4864905984610672e-21         3.1350377865868032e-20             3.563186807385915                      3.563186807385915                        3.5728567775636706             1.1852053986631828e-18   -5.6922769291571882e-20     28.267739830063579   0                     28.267739830063579    0                       30                            0                           9                     0.16049185932017734  0.064541691152961322  0.98368533636190358        0                                8.4005528969118188e-12       
                       1.1659871956573789e-18                          148                                         764.47762538806955                   2.3728681694900398e-08                 1.184067901836119e-20             -5.5932456641117295e-21         3.1628825290891687e-20             3.5433402785492532                     3.563186807385915                        3.5728567775636706             1.1888928505172027e-18   -4.8941234486603596e-20     22.524763975759061   0                     22.524763975759061    0                       31                            1                           9                     0.16012122412616397  0.069640210754536996  0.9833607661248619         4.7415288124410159e-13              8.8747057781559193e-12       
                       1.1743485998992236e-18                          154                                         772.94916041187912                   2.1662581212305541e-08                 8.361404241844683e-21             -5.6597089528473824e-21         3.1845632338088306e-20             3.5143225970108407                     3.563186807385915                        3.5728567775636706             1.1911331778623822e-18   -4.2970501348399455e-20     18.720600262544266   0                     18.720600262544266    0                       32                            2                           9                     0.15940878269493947  0.073569203940438546  0.98315937364109451        3.6826641731308939e-13              9.2429721954690085e-12       
                       1.1776905824180068e-18                          160                                         775.64335631939366                   2.0751746991631597e-08                 3.3419825187831448e-21             -5.6842556765339557e-21         3.1937704395569608e-20             3.5082502335504806                     3.563186807385915                        3.5728567775636706             1.1919456681656368e-18   -4.0508534466665506e-20     17.256170116265551   0                     17.256170116265551    0                       33                            3                           9                     0.15900067387090697  0.075239781187098967  0.98308518618175311        1.5758070144280905e-13              9.4005528969118185e-12       
                       1.1776905824180068e-18                          161                                         775.64335631939366                   2.0751746991631597e-08                 0                               -5.6842556765339557e-21         3.1937704395569608e-20             3.5082502335504806                     3.5082502335504806                       3.5728567775636706             1.1919456681656368e-18   -4.0508534466665506e-20     17.256170116265551   0                     17.256170116265551    0                       34                            0                           10                    0.15900067387090697  0.075239781187098967  0.98308518618175311        0                                9.4005528969118185e-12       
# Table End
