# ODT 1.0
# Table Start
# Title: mmArchive Data Table, Wed May 29 22:36:33 EDT 2019
# Columns: {Oxs_CGEvolve:evolve:Max mxHxm} {Oxs_CGEvolve:evolve:Total energy} {Oxs_CGEvolve:evolve:Delta E} {Oxs_CGEvolve:evolve:Bracket count} {Oxs_CGEvolve:evolve:Line min count} {Oxs_CGEvolve:evolve:Conjugate cycle count} {Oxs_CGEvolve:evolve:Cycle count} {Oxs_CGEvolve:evolve:Cycle sub count} {Oxs_CGEvolve:evolve:Energy calc count} Oxs_UniaxialAnisotropy::Energy Oxs_UniformExchange::Energy {Oxs_UniformExchange::Max Spin Ang} {Oxs_UniformExchange::Stage Max Spin Ang} {Oxs_UniformExchange::Run Max Spin Ang} Oxs_Demag::Energy    Oxs_MinDriver::Iteration {Oxs_MinDriver::Stage iteration} Oxs_MinDriver::Stage Oxs_MinDriver::mx    Oxs_MinDriver::my    Oxs_MinDriver::mz   
# Units:                 A/m                               J                                J                               {}                                   {}                                      {}                                     {}                                  {}                                     {}                                  J                             J                              deg                                    deg                                      deg                           J                       {}                           {}                         {}                 {}                   {}                   {}           
                 496663.41048503004                4.7462947415696602e-17             4.7462947415696602e-17              0                                    0                                       1                                      1                                   0                                      1                                   6.7466266866566752e-20          0                               0                                      0                                        0                              4.7395481148830028e-17    0                            0                          0                    0.019995001874218984  0.0099975009371094919  0.99975009371094703
                 495184.54477561661                4.7449139363645364e-17            -1.3808052051237913e-20              1                                    0                                       1                                      1                                   0                                      2                                   6.7249137248987114e-20          4.2239248163467003e-24             0.02015151144469891                    0.02015151144469891                      0.02015151144469891            4.7381886002471556e-17    1                            1                          0                    0.019961906051430469  0.0099809530257153577  0.99975089808983852
                 274605.15771603503                4.5337621754059325e-17            -2.1115176095860392e-18              2                                    0                                       1                                      1                                   0                                      3                                   2.7249005741382324e-19          1.6912816592184565e-19             3.9985128486755088                     3.9985128486755088                       3.9985128486755088             4.4896003530723648e-17    2                            2                          0                    0.013296967099776524  0.0066484845444476524  0.99898737961668405
                 279766.1715903299                 4.4570390041708962e-17            -7.6723171235036332e-19              3                                    0                                       2                                      2                                   0                                      4                                   6.8651144711821236e-19          4.2875066917028626e-19             4.6482345814477188                     4.6482345814477188                       4.6482345814477188             4.3455127925420462e-17    3                            3                          0                    0.0078320206922096371  0.0039160095606245457  0.99743501198079676
                 358022.36421830044                4.4445565550992913e-17            -1.248244907160492e-19              4                                    0                                       2                                      2                                   0                                      5                                   9.4598304145152984e-19          6.2688594665310083e-19             6.4607319274873971                     6.4607319274873971                       6.4607319274873971             4.2872696562888282e-17    4                            4                          0                    0.0053922857062893986  0.0026961417664780308  0.99645343641854067
# Table End
