# ODT 1.0
# Table Start
# Title: mmArchive Data Table, Wed Aug 17 23:55:40 EDT 2011
# Columns: {Oxs_CGEvolve:evolve:Max mxHxm} {Oxs_CGEvolve:evolve:Total energy} {Oxs_CGEvolve:evolve:Delta E} {Oxs_CGEvolve:evolve:Bracket count} {Oxs_CGEvolve:evolve:Line min count} {Oxs_CGEvolve:evolve:Conjugate cycle count} {Oxs_CGEvolve:evolve:Cycle count} {Oxs_CGEvolve:evolve:Cycle sub count} {Oxs_CGEvolve:evolve:Energy calc count} Oxs_CubicAnisotropy::Energy Oxs_Exchange6Ngbr::Energy {Oxs_Exchange6Ngbr::Max Spin Ang} {Oxs_Exchange6Ngbr::Stage Max Spin Ang} {Oxs_Exchange6Ngbr::Run Max Spin Ang} Oxs_UZeeman::Energy  Oxs_UZeeman::B       Oxs_UZeeman::Bx      Oxs_UZeeman::By      Oxs_UZeeman::Bz      Oxs_MinDriver::Iteration {Oxs_MinDriver::Stage iteration} Oxs_MinDriver::Stage Oxs_MinDriver::mx    Oxs_MinDriver::my    Oxs_MinDriver::mz   
# Units:                 A/m                               J                                J                               {}                                   {}                                      {}                                     {}                                  {}                                     {}                                 J                          J                            deg                                  deg                                    deg                           J                 mT                   mT                   mT                   mT                        {}                           {}                         {}                 {}                   {}                   {}           
                 4860.8823315788186               -6.0126088910789422e-19            -6.0126088910789422e-19              0                                    0                                       1                                      1                                   1                                      1                                -6.0126088910789422e-19        0                             0                                    0                                      0                             0                    0                    0                    0                    0                      0                            0                          0                    1                    0                    0                  
                 105606.37439477177               -6.0188274174027763e-19            -6.2185263238341139e-22              1                                    0                                       1                                      1                                   1                                      2                                -6.0230636413524277e-19        4.236223949650633e-22           0.09529294058495634                  0.09529294058495634                    0.09529294058495634           0                    0                    0                    0                    0                      1                            1                          0                    0.99999979787481164  9.5806056429758643e-06  5.241501383772512e-06
                 74589.601208794338               -6.0262203737171918e-19            -7.392956314415535e-22              3                                    0                                       1                                      2                                   2                                      4                                -6.0315837769634785e-19        5.3634032462865896e-22           0.1168248260805507                   0.1168248260805507                     0.1168248260805507            0                    0                    0                    0                    0                      2                            2                          0                    0.9999993210408552   1.8027630571504756e-05  9.8581221512582579e-06
                 124239.0114872703                -6.0298628260340682e-19            -3.6424523168763545e-22              3                                    0                                       2                                      3                                   3                                      5                                -6.0315837769634785e-19        5.3634032462865896e-22           0.1168248260805507                   0.1168248260805507                     0.1168248260805507           -3.6424523168752289e-22  99.999999999999986   0                    0                    99.999999999999986     3                            0                          1                    0.9999993210408552   1.8027630571504756e-05  9.8581221512582579e-06
                 93447.991169551227               -6.2379675034885655e-19            -2.0810467745449732e-20              4                                    0                                       2                                      3                                   0                                      6                                -6.031801495630397e-19        4.0799933344407196e-22           0.093598799794852278                  0.1168248260805507                     0.1168248260805507           -2.1024600119260923e-20  99.999999999999986   0                    0                    99.999999999999986     4                            1                          1                    0.99999914533202117  1.8408070144469654e-05  0.00056902069849144518
                 319683.06917905953               -7.6715108553052455e-19            -1.43354335181668e-19              5                                    0                                       2                                      3                                   0                                      7                                -6.0338337488774152e-19        1.8777233134587823e-21           0.25398374583909678                  0.25398374583909678                    0.25398374583909678          -1.6564543395624179e-19  99.999999999999986   0                    0                    99.999999999999986     5                            2                          1                    0.99998908305306333  2.1070971593255384e-05  0.0044831140662371103
                 334156.61098688119               -9.3279651948676634e-19            -1.6564543395624179e-19              5                                    0                                       3                                      4                                   1                                      8                                -6.0338337488774152e-19        1.8777233134587823e-21           0.25398374583909678                  0.25398374583909678                    0.25398374583909678          -3.3129086791248358e-19  199.99999999999997   0                    0                    199.99999999999997     6                            0                          2                    0.99998908305306333  2.1070971593255384e-05  0.0044831140662371103
                 259549.44593282224               -9.6446341831412258e-19            -3.1666898827356236e-20              6                                    0                                       3                                      4                                   0                                      9                                -6.0341553275555248e-19        9.7350861471672897e-22           0.17278965064714163                  0.25398374583909678                    0.25398374583909678          -3.6202139417328678e-19  199.99999999999997   0                    0                    199.99999999999997     7                            1                          2                    0.99998713891902491  2.1213130877518873e-05  0.0048989675288189458
                 749404.60249228263               -1.174223543352071e-18            -2.0976012503794838e-19              7                                    0                                       3                                      4                                   0                                      10                               -6.0366872304196745e-19        6.5771970684446588e-21           0.45825648106096367                  0.45825648106096367                    0.45825648106096367          -5.7713201737854813e-19  199.99999999999997   0                    0                    199.99999999999997     8                            2                          2                    0.99996850954680694  2.2208138749989804e-05  0.0078099003497746214
                 791410.97911766381               -1.4627895520413451e-18            -2.8856600868927416e-19              7                                    0                                       4                                      5                                   1                                      11                               -6.0366872304196745e-19        6.5771970684446588e-21           0.45825648106096367                  0.45825648106096367                    0.45825648106096367          -8.6569802606782239e-19  300                  0                    0                    300                    9                            0                          3                    0.99996850954680694  2.2208138749989804e-05  0.0078099003497746214
                 672228.03014640883               -1.494091889270199e-18            -3.1302337228853922e-20              8                                    0                                       4                                      5                                   0                                      12                               -6.036927486272888e-19        4.4920594261020445e-21           0.37746446767816033                  0.45825648106096367                    0.45825648106096367          -8.9489120006901221e-19  300                  0                    0                    300                    10                           1                          3                    0.99996644139544322  2.2268499907147461e-05  0.0080732667581259274
                 457057.21612314135               -1.7013775999253489e-18            -2.0728571065514989e-19              9                                    0                                       4                                      5                                   0                                      13                               -6.0387218541557317e-19        1.7356350453070784e-21           0.24126120022464514                  0.45825648106096367                    0.45825648106096367          -1.0992410495550828e-18  300                  0                    0                    300                    11                           2                          3                    0.99994986892906834  2.2690981525196465e-05  0.00991681024894925
                 519033.70829529437               -2.0677912831103764e-18            -3.6641368318502752e-19              9                                    0                                       5                                      6                                   1                                      14                               -6.0387218541557317e-19        1.7356350453070784e-21           0.24126120022464514                  0.24126120022464514                    0.45825648106096367          -1.4656547327401103e-18  399.99999999999994   0                    0                    399.99999999999994     12                           0                          4                    0.99994986892906834  2.2690981525196465e-05  0.00991681024894925
                 446964.89747832553               -2.1476853866782315e-18            -7.9894103567855062e-20              10                                   0                                       5                                      6                                   0                                      15                               -6.0391270357244043e-19        1.0093596348072312e-21           0.18225766195570156                  0.24126120022464514                    0.45825648106096367          -1.5447820427405982e-18  399.99999999999994   0                    0                    399.99999999999994     13                           1                          4                    0.9999444191150989   2.2783327022060726e-05  0.010452195903740007
                 611062.83083207905               -2.7001941559871652e-18            -5.5250876930893365e-19              11                                   0                                       5                                      6                                   0                                      16                               -6.0424286845908979e-19        2.7042462589191508e-21           0.3108490520566648                   0.3108490520566648                     0.45825648106096367          -2.098655533786995e-18  399.99999999999994   0                    0                    399.99999999999994     14                           2                          4                    0.99989815857110531  2.3429562346580135e-05  0.014199775869153393
                 671905.21375079779               -3.2248580394339138e-18            -5.2466388344674866e-19              11                                   0                                       6                                      7                                   1                                      17                               -6.0424286845908979e-19        2.7042462589191508e-21           0.3108490520566648                   0.3108490520566648                     0.45825648106096367          -2.6233194172337429e-18  499.99999999999989   0                    0                    499.99999999999989     15                           0                          5                    0.99989815857110531  2.3429562346580135e-05  0.014199775869153393
                 594244.61225478188               -3.3213982990252324e-18            -9.6540259591318537e-20              12                                   0                                       6                                      7                                   0                                      18                               -6.043026724333334e-19        1.7242371393237929e-21           0.24874837093773888                  0.3108490520566648                     0.45825648106096367          -2.7188198637312227e-18  499.99999999999989   0                    0                    499.99999999999989     16                           1                          5                    0.99989069124011165  2.3501218398820571e-05  0.014716710607168521
                 595456.48768803221               -3.9902486683482959e-18            -6.6885036932306353e-19              13                                   0                                       6                                      7                                   0                                      19                               -6.0476461621945965e-19        1.8125578779387885e-21           0.24707596959148539                  0.3108490520566648                     0.45825648106096367          -3.3872966100067748e-18  499.99999999999989   0                    0                    499.99999999999989     17                           2                          5                    0.99983085032197028  2.4002635821338062e-05  0.01833511098513518
                 664076.77461902937               -4.6677079903496513e-18            -6.7745932200135542e-19              13                                   0                                       7                                      8                                   1                                      20                               -6.0476461621945965e-19        1.8125578779387885e-21           0.24707596959148539                  0.24707596959148539                    0.45825648106096367          -4.0647559320081302e-18  600                  0                    0                    600                    18                           0                          6                    0.99983085032197028  2.4002635821338062e-05  0.01833511098513518
                 610870.84900448879               -4.8075406629785516e-18            -1.398326726289003e-19              14                                   0                                       7                                      8                                   0                                      21                               -6.0484310953293855e-19        1.184138910386847e-21           0.19921260752633568                  0.24707596959148539                    0.45825648106096367          -4.2038816923559997e-18  600                  0                    0                    600                    19                           1                          6                    0.99981914777295622  2.4075529266292454e-05  0.018962672959223659
                 626685.91126413061               -5.781870735264123e-18            -9.7433007228557142e-19              15                                   0                                       7                                      8                                   0                                      22                               -6.0545632767514469e-19        1.2886448039811818e-21           0.21370389766461084                  0.24707596959148539                    0.45825648106096367          -5.1777030523929596e-18  600                  0                    0                    600                    20                           2                          6                    0.99972614565648943  2.4585517870843003e-05  0.023355340812994656
# Table End
