# ODT 1.0
# Table Start
# Title: mmArchive Data Table, Wed Jun 11 15:40:23 EDT 2014
# Columns: {Oxs_CGEvolve:evolve:Max mxHxm} {Oxs_CGEvolve:evolve:Total energy} {Oxs_CGEvolve:evolve:Delta E} {Oxs_CGEvolve:evolve:Bracket count} {Oxs_CGEvolve:evolve:Line min count} {Oxs_CGEvolve:evolve:Conjugate cycle count} {Oxs_CGEvolve:evolve:Cycle count} {Oxs_CGEvolve:evolve:Cycle sub count} {Oxs_CGEvolve:evolve:Energy calc count} Oxs_UniaxialAnisotropy::Energy Oxs_Exchange6Ngbr::Energy {Oxs_Exchange6Ngbr::Max Spin Ang} {Oxs_Exchange6Ngbr::Stage Max Spin Ang} {Oxs_Exchange6Ngbr::Run Max Spin Ang} Oxs_UZeeman::Energy  Oxs_UZeeman::B       Oxs_UZeeman::Bx      Oxs_UZeeman::By      Oxs_UZeeman::Bz      Oxs_MinDriver::Iteration {Oxs_MinDriver::Stage iteration} Oxs_MinDriver::Stage Oxs_MinDriver::mx    Oxs_MinDriver::my    Oxs_MinDriver::mz   
# Units:                 A/m                               J                                J                               {}                                   {}                                      {}                                     {}                                  {}                                     {}                                  J                            J                            deg                                  deg                                    deg                           J                 mT                   mT                   mT                   mT                        {}                           {}                         {}                 {}                   {}                   {}           
                 103009.29992881062                1.0651212552277177e-17             1.0651212552277177e-17              0                                    0                                       1                                      1                                   0                                      1                                   1.0651212552277177e-17         0                             0                                    0                                      0                             0                    0                    0                    0                    0                      0                            0                          0                    0                    0                   -1                  
                 102515.04181512473                1.0594441606879036e-17            -5.677094539814312e-20              1                                    0                                       1                                      1                                   0                                      2                                   1.059400377912233e-17         4.37827756703832e-22           0.096899295131192997                  0.096899295131192997                    0.096899295131192997           0                    0                    0                    0                    0                      1                            1                          0                   -1.095157614964016e-05 -3.818457029807571e-05 -0.99999981688279149
                 3633566.5763321565                9.9951178795767549e-18            -5.9932372730228045e-19              2                                    0                                       1                                      1                                   0                                      3                                   6.7787475930883162e-18         3.2163702864884384e-18           8.3041881577100174                   8.3041881577100174                     8.3041881577100174            0                    0                    0                    0                    0                      2                            2                          0                   -0.00093935383267205325 -0.0032701224396941612 -0.99865388081870654
                 2059032.2345953134                9.2317848647433036e-18            -7.6333301483345088e-19              2                                    1                                       1                                      1                                   0                                      4                                   8.159858127915025e-18         1.071926736828279e-18           4.7943886762697137                   8.3041881577100174                     8.3041881577100174            0                    0                    0                    0                    0                      3                            3                          0                   -0.00054201927654066507 -0.0018888629026526478 -0.99955157681230455
                 1704836.121883194                 7.9785459728232166e-18            -1.2532388919200872e-18              3                                    2                                       1                                      2                                   1                                      6                                   6.5770735309703272e-18         1.4014724418528893e-18           5.690777096666209                    8.3041881577100174                     8.3041881577100174            0                    0                    0                    0                    0                      4                            4                          0                   -0.0010596504454654977 -0.003691879715066914 -0.99837524965245739
                 1698188.6070236207                1.133748645880939e-16             1.0539631861527069e-16              3                                    2                                       2                                      3                                   0                                      7                                   6.5770735309703272e-18         1.4014724418528893e-18           5.690777096666209                    5.690777096666209                      8.3041881577100174            1.0539631861527069e-16  99.999999999999986   0                    0                    99.999999999999986     5                            0                          1                   -0.0010596504454654977 -0.003691879715066914 -0.99837524965245739
                 902852.50695888849                1.1297372092275213e-16            -4.0114366534177441e-19              4                                    3                                       2                                      3                                   0                                      9                                   6.5777779405318745e-18         1.0011056068991164e-18           4.1483434310491063                   5.690777096666209                      8.3041881577100174            1.0539483737532114e-16  99.999999999999986   0                    0                    99.999999999999986     6                            1                          1                   -0.0010781836762698859 -0.0037583328035296808 -0.99836121848586801
                 442816.62504997134                1.1269837250615998e-16            -2.7534841659216137e-19              5                                    3                                       2                                      4                                   1                                      10                                  6.5950889148581828e-18         7.1327623237283281e-19           2.679092884275649                    5.690777096666209                      8.3041881577100174            1.0539000735892895e-16  99.999999999999986   0                    0                    99.999999999999986     7                            2                          1                   -0.0011109764532667721 -0.003876089618807717 -0.99831546576049068
                 636477.87949811027                1.1267616346171654e-16            -2.2209044443420499e-20              6                                    4                                       2                                      4                                   1                                      12                                  6.6045449618127105e-18         6.8382659422974996e-19           2.6404900629452168                   5.690777096666209                      8.3041881577100174            1.0538779190567409e-16  99.999999999999986   0                    0                    99.999999999999986     8                            3                          1                   -0.0011233042044934657 -0.0039203405602181926 -0.99829447969830676
                 575702.78230330045                1.1252193416431108e-16            -1.5422929740547154e-19              7                                    4                                       2                                      5                                   2                                      13                                  6.5592482108863878e-18         5.8788539296048655e-19           2.1981380737606333                   5.690777096666209                      8.3041881577100174            1.053748005604642e-16  99.999999999999986   0                    0                    99.999999999999986     9                            4                          1                   -0.0011852094259980214 -0.0041438028095372578 -0.99817141811809562
                 572391.41145811195                2.1789673472477528e-16             1.053748005604642e-16              7                                    4                                       3                                      6                                   0                                      14                                  6.5592482108863878e-18         5.8788539296048655e-19           2.1981380737606333                   2.1981380737606333                     8.3041881577100174            2.107496011209284e-16  199.99999999999997   0                    0                    199.99999999999997     10                           0                          2                   -0.0011852094259980214 -0.0041438028095372578 -0.99817141811809562
                 344801.27174348285                2.1781122445711321e-16            -8.5510267662069168e-20              8                                    5                                       3                                      6                                   0                                      16                                  6.519174066062586e-18         5.5132712361467951e-19           1.9880511025473542                   2.1981380737606333                     8.3041881577100174            2.1074072326743595e-16  199.99999999999997   0                    0                    199.99999999999997     11                           1                          2                   -0.0012031796137767583 -0.0042091876819770864 -0.99812937002138125
                 225069.14523768789                2.177284129169586e-16            -8.2811540154606054e-20              9                                    5                                       3                                      7                                   1                                      17                                  6.459888090939937e-18         5.4463559937457852e-19           2.2371921268638779                   2.2371921268638779                     8.3041881577100174            2.107238892266441e-16  199.99999999999997   0                    0                    199.99999999999997     12                           2                          2                   -0.0012357891928084098 -0.0043279641210341412 -0.99804963910715649
                 817810.71883349807                2.1769284620925262e-16            -3.5566707705980766e-20              10                                   5                                       3                                      7                                   1                                      18                                  6.2757759398175199e-18         7.5624502101342561e-19           3.2218881876068051                   3.2218881876068051                     8.3041881577100174            2.1066082524842167e-16  199.99999999999997   0                    0                    199.99999999999997     13                           3                          2                   -0.001347779513559408 -0.0047357743350281232 -0.99775094976093881
                 520711.75754438801                2.1766079742465479e-16            -3.2048784597849353e-20              10                                   6                                       3                                      7                                   1                                      19                                  6.3471926077407214e-18         6.2608540203803997e-19           2.7629119287156381                   3.2218881876068051                     8.3041881577100174            2.1068751941487601e-16  199.99999999999997   0                    0                    199.99999999999997     14                           4                          2                   -0.0013021198513368153 -0.0045695256721130896 -0.99787738109861879
                 521187.91686083534                3.2300455713209277e-16             1.0534375970743801e-16              10                                   6                                       4                                      8                                   0                                      20                                  6.3471926077407214e-18         6.2608540203803997e-19           2.7629119287156381                   2.7629119287156381                     8.3041881577100174            3.1603127912231404e-16  299.99999999999994   0                    0                    299.99999999999994     15                           0                          3                   -0.0013021198513368153 -0.0045695256721130896 -0.99787738109861879
                 377906.00677747693                3.2291237631313675e-16            -9.2180818956017191e-20              11                                   7                                       4                                      8                                   0                                      22                                  6.3308587973080236e-18         5.6775052807990362e-19           2.4575243448238533                   2.7629119287156381                     8.3041881577100174            3.1601376698774883e-16  299.99999999999994   0                    0                    299.99999999999994     16                           1                          3                   -0.0013228412420423382 -0.0046454264493955436 -0.99782208605622336
                 217921.54233633494                3.2281586469343035e-16            -9.6511619706401674e-20              12                                   7                                       4                                      9                                   1                                      23                                  6.286207453122201e-18         5.5128925869991364e-19           2.3105593105729776                   2.7629119287156381                     8.3041881577100174            3.1597836798160827e-16  299.99999999999994   0                    0                    299.99999999999994     17                           2                          3                   -0.0013627423987350078 -0.0047918304687548045 -0.9977103127291046 
                 613673.77818042028                3.2279487013568696e-16            -2.0994557743400196e-20              13                                   7                                       4                                      9                                   1                                      24                                  6.2175924398757302e-18         6.6414204384406289e-19           2.600938921190727                    2.7629119287156381                     8.3041881577100174            3.1591313565196718e-16  299.99999999999994   0                    0                    299.99999999999994     18                           3                          3                   -0.0014321430559795752 -0.0050464224746139636 -0.99750433986956366
                 431687.51089392073                3.227808674569268e-16            -1.4002678760147193e-20              13                                   8                                       4                                      9                                   1                                      25                                  6.2428125185792232e-18         5.9909389624043055e-19           2.2551479192010282                   2.7629119287156381                     8.3041881577100174            3.1593896104210715e-16  299.99999999999994   0                    0                    299.99999999999994     19                           4                          3                   -0.0014052546585290413 -0.0049477920765224198 -0.99758588424311545
                 427553.96604988375                4.2809385447096253e-16             1.0531298701403572e-16              13                                   8                                       5                                      10                                  0                                      26                                  6.2428125185792232e-18         5.9909389624043055e-19           2.2551479192010282                   2.2551479192010282                     8.3041881577100174            4.2125194805614288e-16  399.99999999999994   0                    0                    399.99999999999994     20                           0                          4                   -0.0014052546585290413 -0.0049477920765224198 -0.99758588424311545
                 363111.25971311773                4.2799269289412224e-16            -1.0116157684027898e-19              14                                   9                                       5                                      10                                  0                                      28                                  6.1982518901075805e-18         5.755962277927014e-19           2.08205430912014                     2.2551479192010282                     8.3041881577100174            4.2121884477622198e-16  399.99999999999994   0                    0                    399.99999999999994     21                           1                          4                   -0.0014312059112021555 -0.0050434708121879753 -0.9975074908613788 
                 267967.95294522424                4.2787035329932325e-16            -1.2233959479901958e-19              15                                   9                                       5                                      11                                  1                                      29                                  6.1152085967020011e-18         6.084222699517558e-19           2.3086441623437057                   2.3086441623437057                     8.3041881577100174            4.2114672243266949e-16  399.99999999999994   0                    0                    399.99999999999994     22                           2                          4                   -0.0014854253464997771 -0.0052436547360007442 -0.99733669466162578
                 693259.15061515127                4.2785309248998805e-16            -1.7260809335193411e-20              16                                   9                                       5                                      11                                  1                                      30                                  6.0293078828067622e-18         7.6262422954514035e-19           2.8792351973659098                   2.8792351973659098                     8.3041881577100174            4.2106116037763617e-16  399.99999999999994   0                    0                    399.99999999999994     23                           3                          4                   -0.0015465976577234543 -0.0054694620262519507 -0.99713407127027553
                 507900.02510034508                4.2784454947063443e-16            -8.5430193536415493e-21              16                                   10                                      5                                      11                                  1                                      31                                  6.0597217840320981e-18         6.9190363739253221e-19           2.5652310841037815                   2.8792351973659098                     8.3041881577100174            4.2109292404920979e-16  399.99999999999994   0                    0                    399.99999999999994     24                           4                          4                   -0.0015242566332254813 -0.0053870000557668767 -0.9972092922645992 
                 504934.8225766684                 5.3311778048293688e-16             1.0527323101230245e-16              16                                   10                                      6                                      12                                  0                                      32                                  6.0597217840320981e-18         6.9190363739253221e-19           2.5652310841037815                   2.5652310841037815                     8.3041881577100174            5.2636615506151223e-16  499.99999999999994   0                    0                    499.99999999999994     25                           0                          5                   -0.0015242566332254813 -0.0053870000557668767 -0.9972092922645992 
                 397511.76236970973                5.3298868598338824e-16            -1.2909449954857313e-19              17                                   11                                      6                                      12                                  0                                      34                                  6.0333858930370846e-18         6.3515117805902434e-19           2.517412877756366                    2.5652310841037815                     8.3041881577100174            5.2632014891229217e-16  499.99999999999994   0                    0                    499.99999999999994     26                           1                          5                   -0.0015508182104016625 -0.0054854832465220478 -0.99712213286222806
                 259915.53853231017                5.3285475799563697e-16            -1.3392798775126088e-19              18                                   11                                      6                                      13                                  1                                      35                                  5.97782363582304e-18         6.5253432310581781e-19           2.5611565707994752                   2.5652310841037815                     8.3041881577100174            5.2622440003670816e-16  499.99999999999994   0                    0                    499.99999999999994     27                           2                          5                   -0.0016036473435530525 -0.0056816940586672969 -0.99694073505095515
                 616371.08230350201                5.3284023562277813e-16            -1.4522372858901894e-20              19                                   11                                      6                                      13                                  1                                      36                                  5.928773289550915e-18         7.8716064660716453e-19           2.7707879928161909                   2.7707879928161909                     8.3041881577100174            5.2612430168661999e-16  499.99999999999994   0                    0                    499.99999999999994     28                           3                          5                   -0.0016564650916287425 -0.0058778179900840794 -0.99675109708907572
                 459624.35594019206                5.3283168919390339e-16            -8.5464288747180745e-21              19                                   12                                      6                                      13                                  1                                      37                                  5.9465667258792621e-18         7.224347189299002e-19           2.6906048019811815                   2.7707879928161909                     8.3041881577100174            5.2616268774909423e-16  499.99999999999994   0                    0                    499.99999999999994     29                           4                          5                   -0.0016364815198330776 -0.0058036201360490182 -0.99682382011243997
                 456825.29803480947                6.3806422674372229e-16             1.0523253754981884e-16              19                                   12                                      7                                      14                                  0                                      38                                  5.9465667258792621e-18         7.224347189299002e-19           2.6906048019811815                   2.6906048019811815                     8.3041881577100174            6.3139522529891304e-16  599.99999999999989   0                    0                    599.99999999999989     30                           0                          6                   -0.0016364815198330776 -0.0058036201360490182 -0.99682382011243997
                 413105.74917646317                6.3791309193558263e-16            -1.5113480813960626e-19              20                                   13                                      7                                      14                                  0                                      40                                  5.9115935736373493e-18         6.788788189341001e-19           2.2144681982272605                   2.6906048019811815                     8.3041881577100174            6.3132261954301119e-16  599.99999999999989   0                    0                    599.99999999999989     31                           1                          6                   -0.0016683818269590282 -0.00592251050148621 -0.99670919278543413
                 348298.41534165537                6.3774122976090628e-16            -1.7186217467639836e-19              21                                   13                                      7                                      15                                  1                                      41                                  5.8392400247377946e-18         7.3716491442175962e-19           2.3692037780302484                   2.6906048019811815                     8.3041881577100174            6.3116482482174673e-16  599.99999999999989   0                    0                    599.99999999999989     32                           2                          6                   -0.0017346914005874723 -0.006170083815582976 -0.9964600722179322 
                 883218.27497787972                6.3773216112077691e-16            -9.0686401293238309e-21              22                                   13                                      7                                      15                                  1                                      42                                  5.7766003310883367e-18         9.5628985272608883e-19           3.0634643840962763                   3.0634643840962763                     8.3041881577100174            6.3099927093696247e-16  599.99999999999989   0                    0                    599.99999999999989     33                           3                          6                   -0.0018009816756537978 -0.0064175106930538491 -0.9961987017652385 
                 602687.26183732599                6.377160957513238e-16            -1.6065369453105535e-20              22                                   14                                      7                                      15                                  1                                      43                                  5.8032315466454094e-18         8.3908045544292945e-19           2.7035372125033263                   3.0634643840962763                     8.3041881577100174            6.3107378374923542e-16  599.99999999999989   0                    0                    599.99999999999989     34                           4                          6                   -0.001771531388193019 -0.0063075979521626602 -0.99631633988349022
# Table End
