# ODT 1.0
# Table Start
# Title: mmArchive Data Table, Wed Aug 17 23:55:46 EDT 2011
# Columns: {Oxs_CGEvolve:evolve:Max mxHxm} {Oxs_CGEvolve:evolve:Total energy} {Oxs_CGEvolve:evolve:Delta E} {Oxs_CGEvolve:evolve:Bracket count} {Oxs_CGEvolve:evolve:Line min count} {Oxs_CGEvolve:evolve:Conjugate cycle count} {Oxs_CGEvolve:evolve:Cycle count} {Oxs_CGEvolve:evolve:Cycle sub count} {Oxs_CGEvolve:evolve:Energy calc count} Oxs_UniaxialAnisotropy::Energy Oxs_Exchange6Ngbr::Energy {Oxs_Exchange6Ngbr::Max Spin Ang} {Oxs_Exchange6Ngbr::Stage Max Spin Ang} {Oxs_Exchange6Ngbr::Run Max Spin Ang} Oxs_UZeeman::Energy  Oxs_UZeeman::B       Oxs_UZeeman::Bx      Oxs_UZeeman::By      Oxs_UZeeman::Bz      Oxs_MinDriver::Iteration {Oxs_MinDriver::Stage iteration} Oxs_MinDriver::Stage Oxs_MinDriver::mx    Oxs_MinDriver::my    Oxs_MinDriver::mz   
# Units:                 A/m                               J                                J                               {}                                   {}                                      {}                                     {}                                  {}                                     {}                                  J                            J                            deg                                  deg                                    deg                           J                 mT                   mT                   mT                   mT                        {}                           {}                         {}                 {}                   {}                   {}           
                 103009.29992881064                1.0651212552277177e-17             1.0651212552277177e-17              0                                    0                                       1                                      1                                   1                                      1                                   1.0651212552277177e-17         0                             0                                    0                                      0                             0                    0                    0                    0                    0                      0                            0                          0                    0                    0                   -1                  
                 102515.0418151247                 1.0594441606879034e-17            -5.6770945398143361e-20              1                                    0                                       1                                      1                                   1                                      2                                   1.059400377912233e-17         4.37827756703832e-22           0.096899295132239993                  0.096899295132239993                    0.096899295132239993           0                    0                    0                    0                    0                      1                            1                          0                   -1.0951576149637484e-05 -3.8184570298077167e-05 -0.99999981688268724
                 263635.73710733466                1.0229456574500437e-17            -3.6498503237859747e-19              2                                    0                                       1                                      1                                   1                                      3                                   1.0201436410390002e-17         2.802016411043341e-20           0.77518228397710387                  0.77518228397710387                    0.77518228397710387           0                    0                    0                    0                    0                      2                            2                          0                   -8.7611896392613631e-05 -0.00030546999108601545 -0.99998828077078483
                 263200.58918775228                1.1579605940080492e-16             1.0556660282630448e-16              2                                    0                                       2                                      2                                   2                                      4                                   1.0201436410390002e-17         2.802016411043341e-20           0.77518228397710387                  0.77518228397710387                    0.77518228397710387           1.0556660282630446e-16  99.999999999999986   0                    0                    99.999999999999986     3                            0                          1                   -8.7611896392613631e-05 -0.00030546999108601545 -0.99998828077078483
                 219871.33871991452                1.1577511929577004e-16            -2.0940105034883707e-20              3                                    0                                       2                                      2                                   0                                      5                                   1.0183259671040761e-17         2.5361748463238968e-20           0.76451573412251561                  0.77518228397710387                    0.77518228397710387           1.0556649787626605e-16  99.999999999999986   0                    0                    99.999999999999986     4                            1                          1                   -9.1749403737202042e-05 -0.00031991602724918273 -0.9999872866229883 
                 147507.6093116515                 1.1564152847161033e-16            -1.3359082415970292e-19              4                                    0                                       2                                      2                                   0                                      6                                   1.0057165286699256e-17         1.8756366781590288e-20           0.6898498527501381                   0.77518228397710387                    0.77518228397710387           1.0556560681812947e-16  99.999999999999986   0                    0                    99.999999999999986     5                            2                          1                   -0.00012071181112705454 -0.00042103713332223745 -0.99997884600180165
                 147785.10645176153                2.2120713528973981e-16             1.0556560681812947e-16              4                                    0                                       3                                      3                                   1                                      7                                   1.0057165286699256e-17         1.8756366781590288e-20           0.6898498527501381                   0.6898498527501381                     0.77518228397710387           2.1113121363625895e-16  199.99999999999997   0                    0                    199.99999999999997     6                            0                          2                   -0.00012071181112705454 -0.00042103713332223745 -0.99997884600180165
                 109464.98533309631                2.2117359923347199e-16            -3.3536056267818266e-20              5                                    0                                       3                                      3                                   0                                      8                                   1.0023530494800319e-17         1.9387104571026112e-20           0.68070442214696691                  0.6898498527501381                     0.77518228397710387           2.1113068163410068e-16  199.99999999999997   0                    0                    199.99999999999997     7                            1                          2                   -0.00012803338148893874 -0.00044662479727332344 -0.99997632628587418
                 270883.51147477562                2.2095571609708163e-16            -2.1788313639035584e-19              6                                    0                                       3                                      3                                   0                                      9                                   9.7913442767444632e-18         3.8304547896066453e-20           0.95210936379278643                  0.95210936379278643                    0.95210936379278643           2.1112606727244112e-16  199.99999999999997   0                    0                    199.99999999999997     8                            2                          2                   -0.00017928366672546458 -0.00062573331715863221 -0.99995447132560145
                 270472.17786105414                3.2651874973330221e-16             1.0556303363622057e-16              6                                    0                                       4                                      4                                   1                                      10                                  9.7913442767444632e-18         3.8304547896066453e-20           0.95210936379278643                  0.95210936379278643                    0.95210936379278643           3.166891009086617e-16  300                  0                    0                    300                    9                            0                          3                   -0.00017928366672546458 -0.00062573331715863221 -0.99995447132560145
                 217721.0454140112                 3.264990898205438e-16            -1.965991275840364e-20              7                                    0                                       4                                      4                                   0                                      11                                  9.7746864217119574e-18         3.5908644285019446e-20           0.88894674531331896                  0.95210936379278643                    0.95210936379278643           3.1668849475454677e-16  300                  0                    0                    300                    10                           1                          3                   -0.00018324642554776597 -0.0006396000682541952 -0.99995255737787903
                 197574.29784180803                3.2638017289782818e-16            -1.1891692271562027e-19              8                                    0                                       4                                      4                                   0                                      12                                  9.6591350656662912e-18         3.7217332122775519e-20           0.92670988981148128                  0.95210936379278643                    0.95210936379278643           3.1668382050003916e-16  300                  0                    0                    300                    11                           2                          3                   -0.00021098549075933892 -0.00073666553676979155 -0.99993779829179652
                 197854.81497142039                4.3194144639784117e-16             1.0556127350001299e-16              8                                    0                                       5                                      5                                   1                                      13                                  9.6591350656662912e-18         3.7217332122775519e-20           0.92670988981148128                  0.92670988981148128                    0.95210936379278643           4.222450940000521e-16  399.99999999999994   0                    0                    399.99999999999994     12                           0                          4                   -0.00021098549075933892 -0.00073666553676979155 -0.99993779829179652
                 149249.29993477534                4.3191627373234357e-16            -2.5172665497598358e-20              9                                    0                                       5                                      5                                   0                                      14                                  9.6355323783293076e-18         3.6959895083293048e-20           0.89876616907496221                  0.92670988981148128                    0.95210936379278643           4.2224378145893104e-16  399.99999999999994   0                    0                    399.99999999999994     13                           1                          4                   -0.00021642448266925862 -0.00075571441362122331 -0.99993469000342428
                 281205.64176431159                4.3176086158332941e-16            -1.554121490141628e-19              10                                   0                                       5                                      5                                   0                                      15                                  9.4721549330008338e-18         5.5116999302045028e-20           1.1141988685480442                   1.1141988685480442                     1.1141988685480442            4.2223358965102653e-16  399.99999999999994   0                    0                    399.99999999999994     14                           2                          4                   -0.00025449686820567841 -0.00088905261295114414 -0.99991055431961873
                 280863.49985780742                5.3731925899608601e-16             1.0555839741275659e-16              10                                   0                                       6                                      6                                   1                                      16                                  9.4721549330008338e-18         5.5116999302045028e-20           1.1141988685480442                   1.1141988685480442                     1.1141988685480442            5.2779198706378317e-16  499.99999999999989   0                    0                    499.99999999999989     15                           0                          5                   -0.00025449686820567841 -0.00088905261295114414 -0.99991055431961873
                 223774.71979108246                5.3729990657130097e-16            -1.9352424785037934e-20              11                                   0                                       6                                      6                                   0                                      17                                  9.4567117928183792e-18         5.2572485415157918e-20           1.0424821364274295                   1.1141988685480442                     1.1141988685480442            5.2779062229306742e-16  499.99999999999989   0                    0                    499.99999999999989     16                           1                          5                   -0.00025835219277777209 -0.00090256847132203681 -0.99990796873957233
                 207412.33179138837                5.371853989043075e-16            -1.1450766699346491e-19              12                                   0                                       6                                      6                                   0                                      18                                  9.3496130033047846e-18         5.5399749342349054e-20           1.0697377883184795                   1.1141988685480442                     1.1141988685480442            5.277803861516603e-16  499.99999999999989   0                    0                    499.99999999999989     17                           2                          5                   -0.00028533915042381692 -0.00099717720371220804 -0.99988857620214189
                 207832.70240051553                6.4274147613463954e-16             1.0555607723033204e-16              12                                   0                                       7                                      7                                   1                                      19                                  9.3496130033047846e-18         5.5399749342349054e-20           1.0697377883184795                   1.0697377883184795                     1.1141988685480442            6.3333646338199244e-16  600                  0                    0                    600                    18                           0                          6                   -0.00028533915042381692 -0.00099717720371220804 -0.99988857620214189
                 155921.16563959746                6.4271683394332525e-16            -2.464219131429112e-20              13                                   0                                       7                                      7                                   0                                      20                                  9.3279067846772766e-18         5.4986316716107081e-20           1.0310093296236411                   1.0697377883184795                     1.1141988685480442            6.3333394084193198e-16  600                  0                    0                    600                    19                           1                          6                   -0.00029061642688743019 -0.0010156929609464638 -0.99988459370764049
                 274819.25762253208                6.4256598607759607e-16            -1.5084786572918601e-19              14                                   0                                       7                                      7                                   0                                      21                                  9.1776843870675471e-18         7.3423325613842205e-20           1.2211410204016211                   1.2211410204016211                     1.2211410204016211            6.3331487836491473e-16  600                  0                    0                    600                    20                           2                          6                   -0.00032755669100394943 -0.0011452985548497984 -0.99985449856194208
# Table End
