# ODT 1.0
# Table Start
# Title: mmArchive Data Table, Wed Aug 17 23:55:45 EDT 2011
# Columns: {Oxs_CGEvolve:evolve:Max mxHxm} {Oxs_CGEvolve:evolve:Total energy} {Oxs_CGEvolve:evolve:Delta E} {Oxs_CGEvolve:evolve:Bracket count} {Oxs_CGEvolve:evolve:Line min count} {Oxs_CGEvolve:evolve:Conjugate cycle count} {Oxs_CGEvolve:evolve:Cycle count} {Oxs_CGEvolve:evolve:Cycle sub count} {Oxs_CGEvolve:evolve:Energy calc count} Oxs_CubicAnisotropy::Energy Oxs_Exchange6Ngbr::Energy {Oxs_Exchange6Ngbr::Max Spin Ang} {Oxs_Exchange6Ngbr::Stage Max Spin Ang} {Oxs_Exchange6Ngbr::Run Max Spin Ang} Oxs_UZeeman::Energy  Oxs_UZeeman::B       Oxs_UZeeman::Bx      Oxs_UZeeman::By      Oxs_UZeeman::Bz      Oxs_MinDriver::Iteration {Oxs_MinDriver::Stage iteration} Oxs_MinDriver::Stage Oxs_MinDriver::mx    Oxs_MinDriver::my    Oxs_MinDriver::mz   
# Units:                 A/m                               J                                J                               {}                                   {}                                      {}                                     {}                                  {}                                     {}                                 J                          J                            deg                                  deg                                    deg                           J                 mT                   mT                   mT                   mT                        {}                           {}                         {}                 {}                   {}                   {}           
                 5213.0027390783689               -1.1255246543840805e-18            -1.1255246543840805e-18              0                                    0                                       1                                      1                                   1                                      1                                -1.1255246543840805e-18        0                             0                                    0                                      0                             0                    0                    0                    0                    0                      0                            0                          0                    0.99999999999999989  0                    0                  
                 25804.092559306508               -1.1273366491016379e-18            -1.8119947175574019e-21              1                                    0                                       1                                      1                                   1                                      2                                -1.1274979706422564e-18        1.6132154061822952e-22           0.096569930029992632                  0.096569930029992632                    0.096569930029992632           0                    0                    0                    0                    0                      1                            1                          0                    0.99999981989452646  2.2485262274571695e-05 -2.2579841609164468e-06
                 232922.00679126271               -1.130993406268373e-18            -3.6567571667350275e-21              2                                    0                                       1                                      1                                   1                                      3                                -1.141317669900071e-18        1.0324263631697864e-20           0.77254779142618935                  0.77254779142618935                    0.77254779142618935           0                    0                    0                    0                    0                      2                            2                          0                    0.99998847356518172  0.00017987868447623609 -1.8064881225948402e-05
                 250406.52120943469               -1.1295676108011949e-18             1.4257954671780912e-21              2                                    0                                       2                                      2                                   2                                      4                                -1.141317669900071e-18        1.0324263631697864e-20           0.77254779142618935                  0.77254779142618935                    0.77254779142618935           1.4257954671780536e-21  99.999999999999986   0                    0                    99.999999999999986     3                            0                          1                    0.99998847356518172  0.00017987868447623609 -1.8064881225948402e-05
                 225009.00840169314               -1.1529304936183895e-18            -2.3362882817194634e-20              3                                    0                                       2                                      2                                   0                                      5                                -1.1413026861496999e-18        9.126793554421904e-21           0.73837261274317045                  0.77254779142618935                    0.77254779142618935          -2.0754601023111807e-20  99.999999999999986   0                    0                    99.999999999999986     4                            1                          1                    0.99998845223958555  0.00018030863668642541  0.00026296156146206427
                 273952.38270887436               -1.3102370550066706e-18            -1.5730656138828111e-19              4                                    0                                       2                                      2                                   0                                      6                                -1.1412256424927654e-18        7.0054901987511943e-21           0.50877587425089765                  0.77254779142618935                    0.77254779142618935          -1.7601690271265665e-19  99.999999999999986   0                    0                    99.999999999999986     5                            2                          1                    0.99998595641185117  0.00018331779295190488  0.0022301406579403708
                 326109.08561521478               -1.4862539577193274e-18            -1.7601690271265675e-19              4                                    0                                       3                                      3                                   1                                      7                                -1.1412256424927654e-18        7.0054901987511943e-21           0.50877587425089765                  0.50877587425089765                    0.77254779142618935          -3.520338054253133e-19  199.99999999999997   0                    0                    199.99999999999997     6                            0                          2                    0.99998595641185117  0.00018331779295190488  0.0022301406579403708
                 273080.66446684382               -1.5497785049464787e-18            -6.3524547227151302e-20              5                                    0                                       3                                      3                                   0                                      8                                -1.1412421596456637e-18        6.1820248659919057e-21           0.50872880870626236                  0.50877587425089765                    0.77254779142618935          -4.14718370166807e-19  199.99999999999997   0                    0                    199.99999999999997     7                            1                          2                    0.99998498145865244  0.00018363059688410147  0.0026272485331007172
                 375685.24923588301               -1.9878030311452042e-18            -4.3802452619872555e-19              6                                    0                                       3                                      3                                   0                                      9                                -1.1414130685488466e-18        7.1161982316605986e-21           0.58862883058551163                  0.58862883058551163                    0.77254779142618935          -8.5350616082801777e-19  199.99999999999997   0                    0                    199.99999999999997     8                            2                          2                    0.99997366082847816  0.00018581922072422331  0.0054069772894898517
                 437573.50057751127               -2.4145561115592133e-18            -4.2675308041400908e-19              6                                    0                                       4                                      4                                   1                                      10                               -1.1414130685488466e-18        7.1161982316605986e-21           0.58862883058551163                  0.58862883058551163                    0.77254779142618935          -1.2802592412420272e-18  300                  0                    0                    300                    9                            0                          3                    0.99997366082847816  0.00018581922072422331  0.0054069772894898517
                 372250.72657510958               -2.5317572999019746e-18            -1.1720118834276127e-19              7                                    0                                       4                                      4                                   0                                      11                               -1.1414452110146768e-18        5.9506569531979748e-21           0.54122179660892222                  0.58862883058551163                    0.77254779142618935          -1.396262745840496e-18  300                  0                    0                    300                    10                           1                          3                    0.99997087595201573  0.00018607497189435782  0.0058969001853060171
                 528127.38380971318               -3.3421536505102432e-18            -8.1039635060826864e-19              8                                    0                                       4                                      4                                   0                                      12                               -1.1417543167476073e-18        7.8719586432968309e-21           0.52739145867991588                  0.58862883058551163                    0.77254779142618935          -2.2082712924059327e-18  300                  0                    0                    300                    11                           2                          3                    0.99994456254770847  0.00018786369413496956  0.0093262929431970933
                 585354.3526542926                -4.0782440813122204e-18            -7.3609043080197717e-19              8                                    0                                       5                                      5                                   1                                      13                               -1.1417543167476073e-18        7.8719586432968309e-21           0.52739145867991588                  0.52739145867991588                    0.77254779142618935          -2.9443617232079099e-18  399.99999999999994   0                    0                    399.99999999999994     12                           0                          4                    0.99994456254770847  0.00018786369413496956  0.0093262929431970933
                 516346.67002991156               -4.2326710443045478e-18            -1.5442696299232747e-19              9                                    0                                       5                                      5                                   0                                      14                               -1.1418127442818288e-18        6.4907290049818179e-21           0.50382230832881691                  0.52739145867991588                    0.77254779142618935          -3.0973490290277005e-18  399.99999999999994   0                    0                    399.99999999999994     13                           1                          4                    0.99993990709896818  0.00018805506178883893  0.0098108816469012032
                 476895.92496507702               -5.3041676492420381e-18            -1.0714966049374903e-18              10                                   0                                       5                                      5                                   0                                      15                               -1.1423039573134245e-18        6.3674683906901201e-21           0.47517116300551421                  0.52739145867991588                    0.77254779142618935          -4.1682311603193037e-18  399.99999999999994   0                    0                    399.99999999999994     14                           2                          4                    0.99990065680334261  0.00018939312361432903  0.013202910685103869
                 550161.5274847385                -6.3462254393218646e-18            -1.0420577900798265e-18              10                                   0                                       6                                      6                                   1                                      16                               -1.1423039573134245e-18        6.3674683906901201e-21           0.47517116300551421                  0.47517116300551421                    0.77254779142618935          -5.210288950399131e-18  499.99999999999989   0                    0                    499.99999999999989     15                           0                          5                    0.99990065680334261  0.00018939312361432903  0.013202910685103869
                 513950.50368872628               -6.590802102239908e-18            -2.4457666291804336e-19              11                                   0                                       6                                      6                                   0                                      17                               -1.1424053489372807e-18        5.4780130865974385e-21           0.45916593444657711                  0.47517116300551421                    0.77254779142618935          -5.453874766389225e-18  499.99999999999989   0                    0                    499.99999999999989     16                           1                          5                    0.99989228096733351  0.00018958720124075026  0.013820158942018579
                 535900.07759298605               -8.2962173785717908e-18            -1.7054152763318828e-18              12                                   0                                       6                                      6                                   0                                      18                               -1.1432482842826956e-18        5.9262658374887228e-21           0.46898932994940151                  0.47517116300551421                    0.77254779142618935          -7.1588953601265841e-18  499.99999999999989   0                    0                    499.99999999999989     17                           2                          5                    0.9998229046119379   0.00019094327311745013  0.01814069372034248
                 613082.05240844598               -9.72799645059711e-18            -1.4317790720253193e-18              12                                   0                                       7                                      7                                   1                                      19                               -1.1432482842826956e-18        5.9262658374887228e-21           0.46898932994940151                  0.46898932994940151                    0.77254779142618935          -8.5906744321519034e-18  600                  0                    0                    600                    18                           0                          6                    0.9998229046119379   0.00019094327311745013  0.01814069372034248
                 584969.24891285785               -1.004565088013514e-17            -3.1765442953802963e-19              13                                   0                                       7                                      7                                   0                                      20                               -1.1434002157844212e-18        5.2606182532134882e-21           0.45739043401281748                  0.46898932994940151                    0.77254779142618935          -8.9075112826039333e-18  600                  0                    0                    600                    19                           1                          6                    0.99981049295506286  0.0001911186926432344  0.018809749486432666
                 581012.02563573536               -1.2264573365367669e-17            -2.2189224852325289e-18              14                                   0                                       7                                      7                                   0                                      21                               -1.1446199696014364e-18        5.2706136953545322e-21           0.46212615447557065                  0.46898932994940151                    0.77254779142618935          -1.1125224009461589e-17  600                  0                    0                    600                    20                           2                          6                    0.99971100798749224  0.0001923437054168317  0.023492833178559411
# Table End
