# ODT 1.0
# Table Start
# Title: mmArchive Data Table, Wed Jun 11 23:39:42 EDT 2014
# Columns: {Oxs_CGEvolve:evolve:Max mxHxm} {Oxs_CGEvolve:evolve:Total energy} {Oxs_CGEvolve:evolve:Delta E} {Oxs_CGEvolve:evolve:Bracket count} {Oxs_CGEvolve:evolve:Line min count} {Oxs_CGEvolve:evolve:Conjugate cycle count} {Oxs_CGEvolve:evolve:Cycle count} {Oxs_CGEvolve:evolve:Cycle sub count} {Oxs_CGEvolve:evolve:Energy calc count} Oxs_CubicAnisotropy::Energy Oxs_Exchange6Ngbr::Energy {Oxs_Exchange6Ngbr::Max Spin Ang} {Oxs_Exchange6Ngbr::Stage Max Spin Ang} {Oxs_Exchange6Ngbr::Run Max Spin Ang} Oxs_UZeeman::Energy  Oxs_UZeeman::B       Oxs_UZeeman::Bx      Oxs_UZeeman::By      Oxs_UZeeman::Bz      Oxs_MinDriver::Iteration {Oxs_MinDriver::Stage iteration} Oxs_MinDriver::Stage Oxs_MinDriver::mx    Oxs_MinDriver::my    Oxs_MinDriver::mz   
# Units:                 A/m                               J                                J                               {}                                   {}                                      {}                                     {}                                  {}                                     {}                                 J                          J                            deg                                  deg                                    deg                           J                 mT                   mT                   mT                   mT                        {}                           {}                         {}                 {}                   {}                   {}           
                 4860.8823315788186               -6.0126088910789422e-19            -6.0126088910789422e-19              0                                    0                                       1                                      1                                   0                                      1                                -6.0126088910789422e-19        0                             0                                    0                                      0                             0                    0                    0                    0                    0                      0                            0                          0                    1                    0                    0                  
                 105606.37439477177               -6.0188274174027763e-19            -6.2185263238344309e-22              1                                    0                                       1                                      1                                   0                                      2                                -6.0230636413524267e-19        4.2362239496506358e-22           0.095292940584687111                  0.095292940584687111                    0.095292940584687111           0                    0                    0                    0                    0                      1                            1                          0                    0.99999979787487081  9.580605642971868e-06  5.2415013837737749e-06
                 131429.01068074832               -6.0190592163113771e-19            -2.3179890860066428e-23              2                                    1                                       1                                      1                                   0                                      4                                -6.0255090050403078e-19        6.4497887289304268e-22           0.11758286073743454                  0.11758286073743454                    0.11758286073743454           0                    0                    0                    0                    0                      2                            2                          0                    0.99999969225790208  1.1821600096142797e-05  6.46753645451067e-06
                 162356.24055704358               -6.0299172893051445e-19            -1.0858072993767253e-21              3                                    2                                       1                                      2                                   1                                      6                                -6.0472178119082711e-19        1.7300522603127107e-21           0.19689215083465386                  0.19689215083465386                    0.19689215083465386           0                    0                    0                    0                    0                      3                            3                          0                    0.99999772612565496  3.306747237837686e-05  1.8081066120832471e-05
                 245622.5081917427                -6.0359424806646535e-19            -6.025191359509355e-22              4                                    2                                       1                                      3                                   2                                      7                                -6.0780096337282383e-19        4.206715306358484e-21           0.29871330408505675                  0.29871330408505675                    0.29871330408505675           0                    0                    0                    0                    0                      4                            4                          0                    0.99999164060034162  6.4924540545960251e-05  3.5463455641029399e-05
                 279682.41384811129               -6.0490457821030113e-19            -1.3103301438357513e-21              4                                    2                                       2                                      4                                   0                                      8                                -6.0780096337282383e-19        4.206715306358484e-21           0.29871330408505675                  0.29871330408505675                    0.29871330408505675          -1.3103301438357513e-21  99.999999999999986   0                    0                    99.999999999999986     5                            0                          1                    0.99999164060034162  6.4924540545960251e-05  3.5463455641029399e-05
                 1068411.4762695478               -7.0650851856755476e-19            -1.0160394035725364e-19              5                                    2                                       2                                      4                                   0                                      9                                -6.0787048081355532e-19        1.7684382847640225e-20           0.68605265197068266                  0.68605265197068266                    0.68605265197068266          -1.1632242060163963e-19  99.999999999999986   0                    0                    99.999999999999986     6                            1                          1                    0.99998643496403172  6.7111805612384354e-05  0.0031482104128259312
                 4504997.9183440618               -7.4263323878322535e-19            -3.6124720215670605e-20              6                                    2                                       2                                      4                                   0                                      10                               -6.0837304714886273e-19        3.0859964382549747e-19           3.2806387738516771                   3.2806387738516771                     3.2806387738516771           -4.4285983545986005e-19  99.999999999999986   0                    0                    99.999999999999986     7                            2                          1                    0.99991439301561968  7.3319024756763541e-05  0.011985788622743444
                 3119591.30649288                 -7.7296467216655944e-19            -3.0331433383334037e-20              6                                    3                                       2                                      4                                   0                                      11                               -6.0811609400240319e-19        1.463455409342283e-19           2.2138101992203016                   3.2806387738516771                     3.2806387738516771           -3.1119411909838453e-19  99.999999999999986   0                    0                    99.999999999999986     8                            3                          1                    0.99995363214168576  7.0816574570975224e-05  0.0084223192836645408
                 7185025.2075852156               -3.1013098184947953e-18            -2.3283451463282357e-18              7                                    3                                       2                                      5                                   1                                      12                               -6.5142125450081006e-19        2.0487035985849399e-18           7.8755406514853359                   7.8755406514853359                     7.8755406514853359           -4.4985921625789248e-18  99.999999999999986   0                    0                    99.999999999999986     9                            4                          1                    0.99243795697130588  0.00015022340133720178  0.12175223500368307
                 7201252.6497998051               -7.5999019810737197e-18            -4.4985921625789248e-18              7                                    3                                       3                                      6                                   0                                      13                               -6.5142125450081006e-19        2.0487035985849399e-18           7.8755406514853359                   7.8755406514853359                     7.8755406514853359           -8.9971843251578497e-18  199.99999999999997   0                    0                    199.99999999999997     10                           0                          2                    0.99243795697130588  0.00015022340133720178  0.12175223500368307
                 3334107.5970852948               -9.3357433248633155e-18            -1.7358413437895954e-18              8                                    4                                       3                                      6                                   0                                      15                               -6.5151654754765034e-19        4.3000830115793236e-19           3.2508152448401484                   7.8755406514853359                     7.8755406514853359           -9.1142350784735982e-18  199.99999999999997   0                    0                    199.99999999999997     11                           1                          2                    0.99229462469669116  0.00015080630215106509  0.12333619619754324
                 2571795.8771679783               -9.6929927820864713e-18            -3.5724945722315558e-19              9                                    4                                       3                                      7                                   1                                      16                               -6.5368289989564804e-19        2.4736884295269902e-19           2.6060911040454422                   7.8755406514853359                     7.8755406514853359           -9.2866787251435221e-18  199.99999999999997   0                    0                    199.99999999999997     12                           2                          2                    0.99201874219189912  0.00015162932230026164  0.12566974841071082
                 2137421.0516998237               -9.6963367542451671e-18            -3.3439721586963824e-21              9                                    5                                       3                                      7                                   1                                      17                               -6.5349143395776288e-19        2.2869532653895281e-19           2.4666093323265685                   7.8755406514853359                     7.8755406514853359           -9.2715406468263583e-18  199.99999999999997   0                    0                    199.99999999999997     13                           3                          2                    0.99204397321060622  0.00015155723193734463  0.12546489600331687
                 1378624.7746405357               -1.0097871698281577e-17            -4.0153494403640943e-19              10                                   5                                       3                                      8                                   2                                      18                               -6.5740529843113739e-19        1.0351878058501179e-19           1.7049821534927878                   7.8755406514853359                     7.8755406514853359           -9.5439851804354513e-18  199.99999999999997   0                    0                    199.99999999999997     14                           4                          2                    0.9915847783263988   0.00015285694441954283  0.12915168619040815
                 1372753.4209214775               -1.4869864288499302e-17            -4.7719925902177257e-18              10                                   5                                       4                                      9                                   0                                      19                               -6.5740529843113739e-19        1.0351878058501179e-19           1.7049821534927878                   1.7049821534927878                     7.8755406514853359           -1.4315977770653176e-17  299.99999999999994   0                    0                    299.99999999999994     15                           0                          3                    0.9915847783263988   0.00015285694441954283  0.12915168619040815
                 1573571.3001032311               -1.5366802809489784e-17            -4.9693852099048013e-19              11                                   5                                       4                                      9                                   0                                      20                               -6.6120698976878331e-19        7.5734343801312394e-20           1.3385487436218364                   1.7049821534927878                     7.8755406514853359           -1.4781330163522312e-17  299.99999999999994   0                    0                    299.99999999999994     16                           1                          3                    0.99103330187344685  0.00015384281389969149  0.13334986581702041
                 6964266.537225835                -1.5487797439846301e-17            -1.2099463035651897e-19              12                                   5                                       4                                      9                                   0                                      21                               -6.6881938576546058e-19        8.6471314095587483e-19           4.9334938964614317                   4.9334938964614317                     7.8755406514853359           -1.5683691195036715e-17  299.99999999999994   0                    0                    299.99999999999994     17                           2                          3                    0.98989289162498428  0.0001557478578140234  0.14149052170791621
                 4854794.7310387278               -1.5573022114305181e-17            -8.5224674458879883e-20              12                                   6                                       4                                      9                                   0                                      22                               -6.6580437575122567e-19        4.2348020760535045e-19           3.5277328192452502                   4.9334938964614317                     7.8755406514853359           -1.5330697946159306e-17  299.99999999999994   0                    0                    299.99999999999994     18                           3                          3                    0.99035018866036606  0.00015500306905774801  0.13830599082663728
                 10027765.909598226               -1.8378655233004706e-17            -2.8056331186995245e-18              13                                   6                                       4                                      10                                  1                                      23                               -7.2079143489392143e-19        3.6173250580518004e-18           10.392991655495212                   10.392991655495212                     10.392991655495212           -2.1275188856162584e-17  299.99999999999994   0                    0                    299.99999999999994     19                           4                          3                    0.98125742358160795  0.00016763359198915644  0.1919342540769684 
                 10054624.513185123               -2.5470384851725568e-17            -7.0917296187208615e-18              13                                   6                                       5                                      11                                  0                                      24                               -7.2079143489392143e-19        3.6173250580518004e-18           10.392991655495212                   10.392991655495212                     10.392991655495212           -2.8366918474883446e-17  399.99999999999994   0                    0                    399.99999999999994     20                           0                          4                    0.98125742358160795  0.00016763359198915644  0.1919342540769684 
                 16363171.943430092               -2.5732013811278227e-17            -2.6162895955265976e-19              14                                   6                                       5                                      11                                  0                                      25                               -7.2246627986749069e-19        4.1579911716220043e-18           11.192601378264431                   11.192601378264431                     11.192601378264431           -2.9167538703032738e-17  399.99999999999994   0                    0                    399.99999999999994     21                           1                          4                    0.98022627963779996  0.00016865777532378061  0.19735135450769817
                 5926887.988745396                -2.8780100841254597e-17            -3.048087029976366e-18              14                                   7                                       5                                      11                                  0                                      26                               -7.216570370085292e-19        7.1837261863368791e-19           4.5957975845550019                   11.192601378264431                     11.192601378264431           -2.8776816422879751e-17  399.99999999999994   0                    0                    399.99999999999994     22                           2                          4                    0.98079173750681592  0.00016818572223010168  0.19470767682170573
                 1446127.6249270837               -2.9930131525493291e-17            -1.1500306842386982e-18              15                                   7                                       5                                      12                                  1                                      27                               -7.248398481590875e-19        2.0642308836192511e-19           2.3295374517467868                   11.192601378264431                     11.192601378264431           -2.9411714765696132e-17  399.99999999999994   0                    0                    399.99999999999994     23                           3                          4                    0.97994896703551893  0.0001690019557027347  0.19900348145593344
                 1849748.9366227498               -2.9949536858002773e-17            -1.9405332509481592e-20              16                                   8                                       5                                      12                                  1                                      29                               -7.2531574755208345e-19        2.8122982228026725e-19           2.7630435500794381                   11.192601378264431                     11.192601378264431           -2.9505450932730957e-17  399.99999999999994   0                    0                    399.99999999999994     24                           4                          4                    0.97981925796118974  0.00016912220930312053  0.1996377125344975 
                 1886318.7729078229               -3.7325899591185513e-17            -7.3763627331827393e-18              16                                   8                                       6                                      13                                  0                                      30                               -7.2531574755208345e-19        2.8122982228026725e-19           2.7630435500794381                   2.7630435500794381                     11.192601378264431           -3.6881813665913696e-17  499.99999999999994   0                    0                    499.99999999999994     25                           0                          5                    0.97981925796118974  0.00016912220930312053  0.1996377125344975 
                 2598750.0203329497               -3.8595493026307022e-17            -1.269593435121511e-18              17                                   8                                       6                                      13                                  0                                      31                               -7.319631700746582e-19        1.5575472665568418e-19           1.9921075051697488                   2.7630435500794381                     11.192601378264431           -3.8019284582888051e-17  499.99999999999994   0                    0                    499.99999999999994     26                           1                          5                    0.97855396190574939  0.00016997135133592302  0.20579473328180278
                 8811462.7682830635               -3.8826518921806958e-17            -2.3102589549993541e-19              18                                   8                                       6                                      13                                  0                                      32                               -7.4181715604434364e-19        1.5778785179300008e-18           6.3443526278422757                   6.3443526278422757                     11.192601378264431           -3.9662580283692616e-17  499.99999999999994   0                    0                    499.99999999999994     27                           2                          5                    0.97661833662929876  0.00017119460546663061  0.21468973496740576
                 6461385.9387241025               -3.8962582637601531e-17            -1.360637157945742e-19              18                                   9                                       6                                      13                                  0                                      33                               -7.3805657514944053e-19        8.1659718875433668e-19           4.56447817865826                     6.3443526278422757                     11.192601378264431           -3.9041123251206433e-17  499.99999999999994   0                    0                    499.99999999999994     28                           3                          5                    0.97736536142545627  0.00017073089208858189  0.2113258477809499 
                 12071359.436554922               -4.4514985335135011e-17            -5.5524026975334748e-18              19                                   9                                       6                                      14                                  1                                      34                               -7.9940445782715095e-19        4.9927189643933136e-18           10.513442763705903                   10.513442763705903                     11.192601378264431           -4.8708299841701173e-17  499.99999999999994   0                    0                    499.99999999999994     29                           4                          5                    0.96444731928369209  0.00017795521517474205  0.26365334551941022
                 12098718.132074302               -5.425664530347524e-17            -9.7416599683402345e-18              19                                   9                                       7                                      15                                  0                                      35                               -7.9940445782715095e-19        4.9927189643933136e-18           10.513442763705903                   10.513442763705903                     11.192601378264431           -5.8449959810041407e-17  599.99999999999989   0                    0                    599.99999999999989     30                           0                          6                    0.96444731928369209  0.00017795521517474205  0.26365334551941022
                 13721119.35083618                -5.7417257314121425e-17            -3.1606120106461789e-18              20                                   9                                       7                                      15                                  0                                      36                               -8.0527824495993704e-19        3.2845048344411663e-18           9.4786502613705306                   10.513442763705903                     11.192601378264431           -5.9896483903602646e-17  599.99999999999989   0                    0                    599.99999999999989     31                           1                          6                    0.96272279209842404  0.00017856864280513127  0.2701782587594076 
                 6216032.4425373469               -5.9320978911856845e-17            -1.9037215977354242e-18              20                                   10                                      7                                      15                                  0                                      37                               -8.0305804742469761e-19        8.3194352608642385e-19           4.9822712503973321                   10.513442763705903                     11.192601378264431           -5.9349864390518576e-17  599.99999999999989   0                    0                    599.99999999999989     32                           2                          6                    0.96343688653105486  0.00017836331691533009  0.26771259302038597
                 2076857.1451577416               -6.1302802280194503e-17            -1.9818233683376603e-18              21                                   10                                      7                                      16                                  1                                      38                               -8.1073268925726622e-19        2.6784726868967993e-19           2.7197072554736312                   10.513442763705903                     11.192601378264431           -6.0759916859626916e-17  599.99999999999989   0                    0                    599.99999999999989     33                           3                          6                    0.96166312629586637  0.0001789439346902418  0.27407299176225908
                 3319942.9624410016               -6.1371741719324211e-17            -6.8939439129701547e-20              22                                   11                                      7                                      16                                  1                                      40                               -8.1246565694587024e-19        5.164386809159764e-19           3.7825364162558901                   10.513442763705903                     11.192601378264431           -6.1075714743294313e-17  599.99999999999989   0                    0                    599.99999999999989     34                           4                          6                    0.9612511896143292   0.00017907470366787596  0.27549747808881009
# Table End
