# ODT 1.0
# Table Start
# Title: mmArchive Data Table, Wed Jun 11 15:40:04 EDT 2014
# Columns: {Oxs_CGEvolve:evolve:Max mxHxm} {Oxs_CGEvolve:evolve:Total energy} {Oxs_CGEvolve:evolve:Delta E} {Oxs_CGEvolve:evolve:Bracket count} {Oxs_CGEvolve:evolve:Line min count} {Oxs_CGEvolve:evolve:Conjugate cycle count} {Oxs_CGEvolve:evolve:Cycle count} {Oxs_CGEvolve:evolve:Cycle sub count} {Oxs_CGEvolve:evolve:Energy calc count} Oxs_CubicAnisotropy::Energy Oxs_Exchange6Ngbr::Energy {Oxs_Exchange6Ngbr::Max Spin Ang} {Oxs_Exchange6Ngbr::Stage Max Spin Ang} {Oxs_Exchange6Ngbr::Run Max Spin Ang} Oxs_UZeeman::Energy  Oxs_UZeeman::B       Oxs_UZeeman::Bx      Oxs_UZeeman::By      Oxs_UZeeman::Bz      Oxs_MinDriver::Iteration {Oxs_MinDriver::Stage iteration} Oxs_MinDriver::Stage Oxs_MinDriver::mx    Oxs_MinDriver::my    Oxs_MinDriver::mz   
# Units:                 A/m                               J                                J                               {}                                   {}                                      {}                                     {}                                  {}                                     {}                                 J                          J                            deg                                  deg                                    deg                           J                 mT                   mT                   mT                   mT                        {}                           {}                         {}                 {}                   {}                   {}           
                 5213.0027390783671               -1.1255246543840805e-18            -1.1255246543840805e-18              0                                    0                                       1                                      1                                   0                                      1                                -1.1255246543840805e-18        0                             0                                    0                                      0                             0                    0                    0                    0                    0                      0                            0                          0                    1                    0                    0                  
                 25804.092559306515               -1.1273366491016381e-18            -1.8119947175575252e-21              1                                    0                                       1                                      1                                   0                                      2                                -1.1274979706422564e-18        1.6132154061822966e-22           0.096569930027681578                  0.096569930027681578                    0.096569930027681578           0                    0                    0                    0                    0                      1                            1                          0                    0.99999981989504116  2.2485262274573322e-05 -2.2579841609108433e-06
                 287260.34760286595               -1.1293365252866279e-18            -1.9998761849899057e-21              2                                    0                                       1                                      1                                   0                                      3                                -1.1449448660635431e-18        1.5608340776915272e-20           0.94989198061172531                  0.94989198061172531                    0.94989198061172531           0                    0                    0                    0                    0                      2                            2                          0                    0.99998257414812408  0.00022117074870117289 -2.2212629849548009e-05
                 177303.31927137196               -1.1315630516449063e-18            -2.2265263582783976e-21              2                                    1                                       1                                      1                                   0                                      4                                -1.1376056861167752e-18        6.0426344718689101e-21           0.59102920600514552                  0.94989198061172531                    0.94989198061172531           0                    0                    0                    0                    0                      3                            3                          0                    0.99999325376996528  0.0001376144387429359 -1.3819926390641145e-05
                 233901.93679354183               -1.1350586107332447e-18            -3.4955590883382111e-21              3                                    2                                       1                                      2                                   1                                      6                                -1.1445441014837026e-18        9.4854907504580745e-21           0.70465920815825622                  0.94989198061172531                    0.94989198061172531           0                    0                    0                    0                    0                      4                            4                          0                    0.99998317038961615  0.00022055380402919672 -2.2240034124235197e-05
                 245075.63678812655               -1.1333032856111142e-18             1.7553251221303253e-21              3                                    2                                       2                                      3                                   0                                      7                                -1.1445441014837026e-18        9.4854907504580745e-21           0.70465920815825622                  0.70465920815825622                    0.94989198061172531           1.7553251221303253e-21  99.999999999999986   0                    0                    99.999999999999986     5                            0                          1                    0.99998317038961615  0.00022055380402919672 -2.2240034124235197e-05
                 699339.70667430526               -1.3823732151149072e-18            -2.4906992950379293e-19              4                                    2                                       2                                      3                                   0                                      8                                -1.1445664748315202e-18        1.629920559074113e-20           0.83808359488096029                  0.83808359488096029                    0.94989198061172531          -2.5410594587412819e-19  99.999999999999986   0                    0                    99.999999999999986     6                            1                          1                    0.99997773761969666  0.00022562302309985831  0.0032195317187467833
                 11474838.657174865               -1.7567295448775657e-18            -3.7435632976265851e-19              5                                    2                                       2                                      3                                   0                                      9                                -1.1547516619333493e-18        2.6660536320983728e-18           8.1479279310226556                   8.1479279310226556                     8.1479279310226556           -3.2680315150425894e-18  99.999999999999986   0                    0                    99.999999999999986     7                            2                          1                    0.99908833510054984  0.00028511384429403858  0.041406079988996307
                 6962383.502766747                -2.1731251107402347e-18            -4.1639556586266887e-19              5                                    3                                       2                                      3                                   0                                      10                               -1.1482376251609169e-18        9.746700089027251e-19           4.9272083289051993                   8.1479279310226556                     8.1479279310226556           -1.9995574944820425e-18  99.999999999999986   0                    0                    99.999999999999986     8                            3                          1                    0.99964817366419545  0.00026012658700522845  0.025334467301806766
                 6997010.3209977811               -8.7430977752986106e-18            -6.5699726645583763e-18              6                                    3                                       2                                      4                                   1                                      11                               -1.2388883139728448e-18        2.3588809960128688e-18           10.724951554306022                   10.724951554306022                     10.724951554306022           -9.8630904573386352e-18  99.999999999999986   0                    0                    99.999999999999986     9                            4                          1                    0.99200843070174716  0.00041383189600550913  0.12496572035351003
                 7017034.0275668129               -1.8606188232637246e-17            -9.8630904573386352e-18              6                                    3                                       3                                      5                                   0                                      12                               -1.2388883139728448e-18        2.3588809960128688e-18           10.724951554306022                   10.724951554306022                     10.724951554306022           -1.972618091467727e-17  199.99999999999997   0                    0                    199.99999999999997     10                           0                          2                    0.99200843070174716  0.00041383189600550913  0.12496572035351003
                 8676211.4169309456               -1.8699971910686246e-17            -9.3783678049000061e-20              7                                    3                                       3                                      5                                   0                                      13                               -1.2464475341485285e-18        2.885187609955136e-18           9.904033920814415                    10.724951554306022                     10.724951554306022           -2.0338711986492854e-17  199.99999999999997   0                    0                    199.99999999999997     11                           1                          2                    0.99154139551096221  0.00041784502979537875  0.12884611600431686
                 2726641.5270310291               -2.0506106381322634e-17            -1.8061344706363901e-18              7                                    4                                       3                                      5                                   0                                      14                               -1.2426466946400491e-18        7.7307921079670949e-19           9.0132536864437949                   10.724951554306022                     10.724951554306022           -2.0036538897479295e-17  199.99999999999997   0                    0                    199.99999999999997     12                           2                          2                    0.99179493484340286  0.00041587458602262441  0.12693184390555859
                 1747271.3217300966               -2.1377978076762437e-17            -8.7187169543980221e-19              8                                    4                                       3                                      6                                   1                                      15                               -1.2489708308547144e-18        3.9569358631181944e-19           5.1136702611694842                   10.724951554306022                     10.724951554306022           -2.0524700832219542e-17  199.99999999999997   0                    0                    199.99999999999997     13                           3                          2                    0.99141450409531096  0.00041917147396368197  0.13002435877642179
                 5913468.4120850721               -2.1497320810061209e-17            -1.1934273329877186e-19              9                                    4                                       3                                      6                                   1                                      16                               -1.2560150898849423e-18        8.1570812229796189e-19           4.1504697473101801                   10.724951554306022                     10.724951554306022           -2.1057013842474228e-17  199.99999999999997   0                    0                    199.99999999999997     14                           4                          2                    0.99097177940375569  0.00042275821699128748  0.13339657152595241
                 5940293.6335440781               -3.2025827731298324e-17            -1.0528506921237114e-17              9                                    4                                       4                                      7                                   0                                      17                               -1.2560150898849423e-18        8.1570812229796189e-19           4.1504697473101801                   4.1504697473101801                     10.724951554306022           -3.1585520763711346e-17  299.99999999999994   0                    0                    299.99999999999994     15                           0                          3                    0.99097177940375569  0.00042275821699128748  0.13339657152595241
                 2596054.9870689036               -3.3147211767155488e-17            -1.121384035857162e-18              10                                   5                                       4                                      7                                   0                                      19                               -1.260207594993471e-18        2.5991808889476517e-19           2.463627875461067                    4.1504697473101801                     10.724951554306022           -3.2146922261056782e-17  299.99999999999994   0                    0                    299.99999999999994     16                           1                          3                    0.99065655181474377  0.00042416983644178547  0.13576756409421356
                 2029260.5037584316               -3.4265650661313388e-17            -1.1184388941578991e-18              11                                   5                                       4                                      8                                   1                                      20                               -1.2679292219587152e-18        1.807020782235131e-19           1.9005684319080176                   4.1504697473101801                     10.724951554306022           -3.3178423517578181e-17  299.99999999999994   0                    0                    299.99999999999994     17                           2                          3                    0.99005120508477706  0.00042668982318904542  0.14012395043256246
                 8514386.5588190034               -3.4809685433324426e-17            -5.440347720110418e-19              12                                   5                                       4                                      8                                   1                                      21                               -1.299592586384375e-18        3.6404372246942591e-18           7.1176319946777848                   7.1176319946777848                     10.724951554306022           -3.7150530071634308e-17  299.99999999999994   0                    0                    299.99999999999994     18                           3                          3                    0.98748765475975975  0.00043631268628511766  0.15689952934451806
                 5220985.2245270731               -3.5310311615196895e-17            -5.0062618187247024e-19              12                                   6                                       4                                      8                                   1                                      22                               -1.2862817102729892e-18        1.5023938651624892e-18           4.5252217375018855                   7.1176319946777848                     10.724951554306022           -3.55264237700864e-17  299.99999999999994   0                    0                    299.99999999999994     19                           4                          3                    0.98858055168496906  0.00043239246735474982  0.1500403670707367 
                 5220501.3674096344               -4.7152452871892365e-17            -1.1842141256695466e-17              12                                   6                                       5                                      9                                   0                                      23                               -1.2862817102729892e-18        1.5023938651624892e-18           4.5252217375018855                   4.5252217375018855                     10.724951554306022           -4.7368565026781864e-17  399.99999999999994   0                    0                    399.99999999999994     20                           0                          4                    0.98858055168496906  0.00043239246735474982  0.1500403670707367 
                 3014452.8029966503               -4.9618844245039509e-17            -2.4663913731471429e-18              13                                   7                                       5                                      9                                   0                                      25                               -1.2936538811379463e-18        3.706224583555448e-19           2.0101185656241594                   4.5252217375018855                     10.724951554306022           -4.8695812822257103e-17  399.99999999999994   0                    0                    399.99999999999994     21                           1                          4                    0.98794747617087086  0.00043386285449566723  0.15424443671722773
                 4089246.0743688531               -5.1882976336589833e-17            -2.2641320915503275e-18              14                                   7                                       5                                      10                                  1                                      26                               -1.3089219414237814e-18        6.9682637726669768e-19           3.4718764566129496                   4.5252217375018855                     10.724951554306022           -5.1270880772432748e-17  399.99999999999994   0                    0                    399.99999999999994     22                           2                          4                    0.9866311278072617   0.00043686667933379674  0.16240098822470947
                 6419505.8307608105               -5.2149255004491576e-17            -2.6627866790174241e-19              15                                   8                                       5                                      10                                  1                                      28                               -1.3164967564275448e-18        1.6734522280503318e-18           4.9770785328154865                   4.9770785328154865                     10.724951554306022           -5.2506210476114362e-17  399.99999999999994   0                    0                    399.99999999999994     23                           3                          4                    0.98596723720860657  0.00043829511289132336  0.16631390646677527
                 6296800.3264406221               -6.4507869255615074e-17            -1.2358614251123496e-17              16                                   8                                       5                                      11                                  2                                      29                               -1.4090642287615651e-18        2.8036158343710156e-18           6.9653150298981847                   6.9653150298981847                     10.724951554306022           -6.5902420861224525e-17  399.99999999999994   0                    0                    399.99999999999994     24                           4                          4                    0.97782101042613956  0.00045379627645098988  0.20874652654725095
                 6274064.7729236372               -8.0983474470921199e-17            -1.6475605215306131e-17              16                                   8                                       6                                      12                                  0                                      30                               -1.4090642287615651e-18        2.8036158343710156e-18           6.9653150298981847                   6.9653150298981847                     10.724951554306022           -8.237802607653065e-17  499.99999999999994   0                    0                    499.99999999999994     25                           0                          5                    0.97782101042613956  0.00045379627645098988  0.20874652654725095
                 4178439.098631999                -8.5354832422699571e-17            -4.3713579517783683e-18              17                                   9                                       6                                      12                                  0                                      32                               -1.4226182920069316e-18        6.417982331069552e-19           3.0624619474489658                   6.9653150298981847                     10.724951554306022           -8.4574012363799594e-17  499.99999999999994   0                    0                    499.99999999999994     26                           1                          5                    0.97664754956605571  0.00045534565849348805  0.21431117201941755
                 4522709.5770753836               -8.9088689536964186e-17            -3.7338571142646147e-18              18                                   9                                       6                                      13                                  1                                      33                               -1.4484137602528642e-18        1.1206497235390967e-18           4.4779857765470661                   6.9653150298981847                     10.724951554306022           -8.8760925500250417e-17  499.99999999999994   0                    0                    499.99999999999994     27                           2                          5                    0.97424361791241165  0.00045783105106468629  0.22492084083300629
                 6982674.649139409                -8.9420323979779525e-17            -3.3163444281534201e-19              19                                   10                                      6                                      13                                  1                                      35                               -1.4589758918097857e-18        2.4707035155778841e-18           5.9993630898620154                   6.9653150298981847                     10.724951554306022           -9.0432051603547623e-17  499.99999999999994   0                    0                    499.99999999999994     28                           3                          5                    0.97323741089074256  0.00045880438860654152  0.22915548672221045
                 10549138.907523533               -1.0554287523604707e-16            -1.6122551256267543e-17              20                                   10                                      6                                      14                                  2                                      36                               -1.5860235493110606e-18        5.3038832828580412e-18           9.3415590890008016                   9.3415590890008016                     10.724951554306022           -1.0926073496959405e-16  499.99999999999994   0                    0                    499.99999999999994     29                           4                          5                    0.96067118058116097  0.00046872808884985593  0.27686750944619221
                 10581389.907004135               -1.2739502222996588e-16            -2.1852146993918811e-17              20                                   10                                      7                                      15                                  0                                      37                               -1.5860235493110606e-18        5.3038832828580412e-18           9.3415590890008016                   9.3415590890008016                     10.724951554306022           -1.3111288196351285e-16  599.99999999999989   0                    0                    599.99999999999989     30                           0                          6                    0.96067118058116097  0.00046872808884985593  0.27686750944619221
                 11727109.525015732               -1.3301545142992798e-16            -5.6204291999620918e-18              21                                   10                                      7                                      15                                  0                                      38                               -1.6089462631764001e-18        3.5122541354881635e-18           7.7422047622504335                   9.3415590890008016                     10.724951554306022           -1.3491875930223974e-16  599.99999999999989   0                    0                    599.99999999999989     31                           1                          6                    0.95836496629934831  0.00046992588403688672  0.28490427718594985
                 5629177.2548949402               -1.3422962838391259e-16            -1.2141769539846113e-18              21                                   11                                      7                                      15                                  0                                      39                               -1.6021188787006135e-18        1.1671408499311398e-18           4.1425855411647285                   9.3415590890008016                     10.724951554306022           -1.3379465035514311e-16  599.99999999999989   0                    0                    599.99999999999989     32                           2                          6                    0.95908433136842564  0.00046958617203438752  0.28253052687348673
                 3189743.3731979951               -1.394311806487929e-16            -5.2015522648803063e-18              22                                   11                                      7                                      16                                  1                                      40                               -1.6313543380307526e-18        7.6953186491902166e-19           3.8318128995236775                   9.3415590890008016                     10.724951554306022           -1.3856935817568115e-16  599.99999999999989   0                    0                    599.99999999999989     33                           3                          6                    0.95605306431517201  0.0004710074084208938  0.29261314761073443
                 11246419.019928873               -1.4012490453068547e-16            -6.9372388189259109e-19              23                                   11                                      7                                      16                                  1                                      41                               -1.662592981476954e-18        5.1149639755906214e-18           10.232124659751468                   10.232124659751468                     10.724951554306022           -1.4357727552479914e-16  599.99999999999989   0                    0                    599.99999999999989     34                           4                          6                    0.95268123824304984  0.00047239190625077468  0.30318823057129762
# Table End
