# ODT 1.0
# Table Start
# Title: mmArchive Data Table, Wed Jun 11 15:40:34 EDT 2014
# Columns: {Oxs_RungeKuttaEvolve:evolve:Total energy} {Oxs_RungeKuttaEvolve:evolve:Energy calc count} {Oxs_RungeKuttaEvolve:evolve:Max dm/dt} Oxs_RungeKuttaEvolve:evolve:dE/dt {Oxs_RungeKuttaEvolve:evolve:Delta E} Oxs_CubicAnisotropy::Energy Oxs_UniformExchange::Energy {Oxs_UniformExchange::Max Spin Ang} {Oxs_UniformExchange::Stage Max Spin Ang} {Oxs_UniformExchange::Run Max Spin Ang} Oxs_ScriptUZeeman::Energy Oxs_ScriptUZeeman::B Oxs_ScriptUZeeman::Bx Oxs_ScriptUZeeman::By Oxs_ScriptUZeeman::Bz Oxs_FixedZeeman::Energy Oxs_Demag::Energy    Oxs_TimeDriver::Iteration {Oxs_TimeDriver::Stage iteration} Oxs_TimeDriver::Stage Oxs_TimeDriver::mx   Oxs_TimeDriver::my   Oxs_TimeDriver::mz   Oxs_TimeDriver::mx_corner Oxs_TimeDriver::my_corner Oxs_TimeDriver::mz_corner {Oxs_TimeDriver::Last time step} {Oxs_TimeDriver::Simulation time}
# Units:                       J                                            {}                                        deg/ns                                 J/s                                  J                                J                           J                              deg                                    deg                                      deg                               J                      mT                   mT                    mT                    mT                      J                    J                       {}                            {}                          {}                   {}                   {}                   {}                      {}                        {}                        {}                            s                                 s                
                      -1.8548651660862931e-17                          1                                           2844.0141078207294                  -3.8080240385521118e-09                 0                               -8.9917260260424522e-22         0                               0                                      0                                        0                                0                       0                    0                     0                     0                     -3.1992002998750553e-17    1.3444250510490225e-17    0                             0                           0                     0.99975009371095458  0.019995001874219091  0.0099975009371095457    0.99975009371095458       0.019995001874219091       0.0099975009371095457           0                                0                         
                      -1.8548664380879125e-17                          7                                           2844.2234542732554                  -3.8079559694621339e-09                -1.2720016193804071e-23             -8.9892562106854006e-22         1.0249949467112167e-25             0.0061487701089410146                    0.0061487701089410146                      0.0061487701089410146              0                       0                    0                     0                     0                     -3.1992005196833306e-17    1.3444239639075755e-17    1                             1                           0                     0.99975016240104064  0.019990537389933949  0.0099995024776889183    0.99975063549161536       0.019993425820063006       0.0099461423185435993           3.3403491121496319e-15              3.3403491121496319e-15       
                      -1.8548715258640486e-17                          13                                          2845.0524920781563                  -3.8076777721856755e-09                -5.0877761361732575e-23             -8.9797879914091332e-22         2.5623086764829896e-24             0.030742449066231331                    0.030742449066231331                      0.030742449066231331              0                       0                    0                     0                     0                     -3.1992013622836883e-17    1.3444193780686863e-17    2                             2                           0                     0.99975042571365247  0.01997267018178581  0.010007503620887731    0.99975273472739234       0.019987188812421598       0.0097407092944065757           1.3361396448598527e-14              1.6701745560748158e-14       
                      -1.8548918730617522e-17                          19                                          2848.2350753866608                  -3.8064703344705051e-09                -2.0347197703533007e-22             -8.9484905287506247e-22         4.5185178213207103e-23             0.12908762830991738                    0.12908762830991738                      0.12908762830991738              0                       0                    0                     0                     0                     -3.1992041466725093e-17    1.3443972399982234e-17    3                             3                           0                     0.99975129583515898  0.01990105329887568  0.010039427730620271    0.99976004574429622       0.019963316170509508       0.008919002291771172           5.344558579439411e-14              7.0147331355142268e-14       
                      -1.8549731852260801e-17                          25                                          2858.8309238369011                  -3.8001342658351336e-09                -8.1312164328050352e-22             -8.9283851351678884e-22         7.3901567221011452e-22             0.52154265788422349                    0.52154265788422349                      0.52154265788422349              0                       0                    0                     0                     0                     -3.1992059177057298e-17    1.3442481147637804e-17    4                             4                           0                     0.99975184928304051  0.019612235332471924  0.010165826736690425    0.99977193607239645       0.01988503591639626       0.0056326967858329234           2.1378234317757644e-13              2.8392967453271868e-13       
                      -1.8549731852260801e-17                          26                                          2858.8309238369011                  -3.8001342658351336e-09                 0                               -8.9283851351678884e-22         7.3901567221011452e-22             0.52154265788422349                    0.52154265788422349                      0.52154265788422349              0                       0                    0                     0                     0                     -3.1992059177057298e-17    1.3442481147637804e-17    5                             0                           1                     0.99975184928304051  0.019612235332471924  0.010165826736690425    0.99977193607239645       0.01988503591639626       0.0056326967858329234           0                                2.8392967453271868e-13       
                      -1.8552963267856695e-17                          32                                          2867.88166772973                    -3.7517917894371378e-09                -3.231415595894341e-21             -1.0511167083724264e-21         1.1726530022689608e-20             2.0492869214584672                     2.0492869214584672                       2.0492869214584672               0                       0                    0                     0                     0                     -3.1990643980589181e-17    1.3427005299418167e-17    6                             1                           1                     0.99970762439341176  0.018420551712638657  0.010650031783754668    0.99954423874551246       0.019847845493226858      -0.00749645175379065           8.5512937271030576e-13              1.1390590472430244e-12       
                      -1.8560907000020941e-17                          38                                          2835.687838345048                   -3.5002887965030532e-09                -7.9437321642434506e-21             -2.5744825994550651e-21         9.2264462428023742e-20             5.8018770510866444                     5.8018770510866444                       5.8018770510866444               0                       0                    0                     0                     0                     -3.1976830691213257e-17    1.3326233711363752e-17    7                             2                           1                     0.99927595910041422  0.015135616926271956  0.011719627060851032    0.99706687644071856       0.02178699578867152      -0.040783815383999597           2.1860339449545626e-12              3.3250929921975866e-12       
                      -1.8568378016486714e-17                          44                                          2617.919000886563                   -3.1247261606701905e-09                -7.4710164657757608e-21             -5.4736489843187978e-21         2.2938286248342298e-19             10.284669590155758                     10.284669590155758                       10.284669590155758               0                       0                    0                     0                     0                     -3.1949775412509614e-17    1.3157488182523796e-17    8                             3                           1                     0.9984304816409254   0.011457246826571125  0.012541913111095046    0.99207922712619123       0.02695191480037628      -0.07433616741975603           2.2541648618802088e-12              5.5792578540777958e-12       
                      -1.8574874847444559e-17                          50                                          2405.5320362631905                  -2.7239944485440844e-09                -6.4968309578439027e-21             -9.1140076924821484e-21         3.8587948184984419e-19             13.601462588049236                     13.601462588049236                       13.601462588049236               0                       0                    0                     0                     0                     -3.1914520147844468e-17    1.2962879826242544e-17    9                             4                           1                     0.99732875462013948  0.0076234912024255152  0.013047454585213093    0.98539142914016564       0.03536441535811552      -0.10634900114725951           2.2270384774760114e-12              7.8062963315538072e-12       
                      -1.8574874847444559e-17                          51                                          2405.5320362631905                  -2.7239944485440844e-09                 0                               -9.1140076924821484e-21         3.8587948184984419e-19             13.601462588049236                     13.601462588049236                       13.601462588049236               0                       0                    0                     0                     0                     -3.1914520147844468e-17    1.2962879826242544e-17    10                            0                           2                     0.99732875462013948  0.0076234912024255152  0.013047454585213093    0.98539142914016564       0.03536441535811552      -0.10634900114725951           0                                7.8062963315538072e-12       
                      -1.8580586084821167e-17                          57                                          2346.1140469430047                  -2.4103163282575779e-09                -5.7112373766089738e-21             -1.2996875241064241e-20         5.3540499656267691e-19             15.420490458489718                     15.420490458489718                       15.420490458489718               0                       0                    0                     0                     0                     -3.1875201137978264e-17    1.2772206931835482e-17    11                            1                           2                     0.99610003556182058  0.0036660525509799925  0.01323071576962544    0.9775914303577552        0.047353448130595471      -0.1371029742391115            2.2384835250670194e-12              1.0044779856620826e-11       
                      -1.8585809937244916e-17                          63                                          2396.0735011931702                  -2.2577299808905362e-09                -5.2238524237470324e-21             -1.6708133526391978e-20         6.580703545178611e-19             16.243921827619907                     16.243921827619907                       16.243921827619907               0                       0                    0                     0                     0                     -3.1835662909455918e-17    1.2608490751219534e-17    12                            2                           2                     0.99486446592049738 -0.00033050776434998517  0.013078184668288743    0.96920045250936027       0.063408532590484873      -0.16629561370982077           2.257651219380658e-12              1.2302431076001485e-11       
                      -1.8590932924022941e-17                          69                                          2483.9068996403917                  -2.3111587825837367e-09                -5.1229867780251629e-21             -1.9978248077125008e-20         7.4013308730736989e-19             16.742843332972473                     16.742843332972473                       16.742843332972473               0                       0                    0                     0                     0                     -3.1798784964071623e-17    1.2487697200818435e-17    13                            3                           2                     0.99371203012723808 -0.0042412466062327209  0.012588073697702954    0.96063716423723033       0.08390909457746111      -0.19296562636419745           2.2642488993281136e-12              1.4566679975329597e-11       
                      -1.8595810730383132e-17                          81                                          2530.9424361761658                  -2.5133321236530455e-09                -4.8778063601914496e-21             -2.2481413657189763e-20         7.7668692077475453e-19             17.194817445403007                     17.194817445403007                       17.194817445403007               0                       0                    0                     0                     0                     -3.1768672460820978e-17    1.2418656223320279e-17    14                            4                           2                     0.9927710144006554  -0.0075842751866043731  0.011872130451797337    0.95295469838341318       0.10601063314973161      -0.21377880437764846           2.0323349430524366e-12              1.6599014918382034e-11       
                      -1.8595810730383132e-17                          82                                          2530.9424361761658                  -2.5133321236530455e-09                 0                               -2.2481413657189763e-20         7.7668692077475453e-19             17.194817445403007                     17.194817445403007                       17.194817445403007               0                       0                    0                     0                     0                     -3.1768672460820978e-17    1.2418656223320279e-17    15                            0                           3                     0.9927710144006554  -0.0075842751866043731  0.011872130451797337    0.95295469838341318       0.10601063314973161      -0.21377880437764846           0                                1.6599014918382034e-11       
                      -1.8600795732975877e-17                          88                                          2559.3031936407097                  -2.77748129324799e-09                -4.9850025927439065e-21             -2.4516657142045019e-20         7.8456916117889214e-19             17.415060462005904                     17.415060462005904                       17.415060462005904               0                       0                    0                     0                     0                     -3.1742541303088371e-17    1.2381693066075649e-17    16                            1                           3                     0.99195441572151144 -0.010484354820860534  0.010988781719271354    0.9457723753428201        0.12921157430933819      -0.22994860894129998           1.8886056781164586e-12              1.8487620596498495e-11       
                      -1.8606209611465861e-17                          94                                          2590.9708027737101                  -3.0587652096645275e-09                -5.4138784899857762e-21             -2.6383999185129675e-20         7.7648281198013159e-19             17.201020762869049                     17.415060462005904                       17.415060462005904               0                       0                    0                     0                     0                     -3.1717331524198036e-17    1.2361023099937171e-17    17                            2                           3                     0.99116661013118845 -0.013087202409435887  0.0099355679442311752    0.93852205024864421       0.154007827844301        -0.24282034517096862           1.8558997180996125e-12              2.0343520314598107e-11       
                      -1.8612158515950576e-17                          100                                         2625.6825469536852                  -3.3031360855391696e-09                -5.9489044847129829e-21             -2.8296638163276932e-20         7.6225938526518096e-19             16.562532326226169                     17.415060462005904                       17.415060462005904               0                       0                    0                     0                     0                     -3.1690957830049095e-17    1.234483656699662e-17    18                            3                           3                     0.99034243218903417 -0.015412491935427763  0.0087136241219059191    0.93084027059054342       0.18068008729172544      -0.25291226816686518           1.8678057659938367e-12              2.2211326080591942e-11       
                      -1.8618560303873641e-17                          106                                         2653.6898987502509                  -3.4665068741239985e-09                -6.4017879230659463e-21             -3.0405669341831095e-20         7.4937501929748843e-19             15.717324514638554                     17.415060462005904                       17.415060462005904               0                       0                    0                     0                     0                     -3.1661960021688681e-17    1.2324430367859383e-17    19                            4                           3                     0.98943625067777108 -0.017420697069037955  0.0073409166546430467    0.92253875344998382       0.20925682876887616      -0.2602744851194011            1.887828168605207e-12              2.4099154249197151e-11       
                      -1.8618560303873641e-17                          107                                         2653.6898987502509                  -3.4665068741239985e-09                 0                               -3.0405669341831095e-20         7.4937501929748843e-19             15.717324514638554                     15.717324514638554                       17.415060462005904               0                       0                    0                     0                     0                     -3.1661960021688681e-17    1.2324430367859383e-17    20                            0                           4                     0.98943625067777108 -0.017420697069037955  0.0073409166546430467    0.92253875344998382       0.20925682876887616      -0.2602744851194011            0                                2.4099154249197151e-11       
                      -1.8625187678245517e-17                          113                                         2645.4243952723145                  -3.5307402184810792e-09                -6.6273743718751452e-21             -3.2771364428466125e-20         7.4207180289437777e-19             14.944302635709997                     15.717324514638554                       17.415060462005904               0                       0                    0                     0                     0                     -3.1629693579713485e-17    1.2295205463002059e-17    21                            1                           4                     0.98842792436604632 -0.019051640783088481  0.0058581630617516329    0.91364628878234921       0.23933327073264493      -0.26474939872711689           1.8904470573976667e-12              2.5989601306594815e-11       
                      -1.8632001377904912e-17                          119                                         2517.2219425017279                  -3.4913477719936626e-09                -6.8136996593950649e-21             -3.545942253902746e-20         7.4183835857448366e-19             14.452693425438385                     15.717324514638554                       17.415060462005904               0                       0                    0                     0                     0                     -3.1592971566147724e-17    1.2254591252207357e-17    22                            2                           4                     0.98728036144211628 -0.02029968307906093  0.0042603961981020509    0.90400206472666589       0.27135116552619837      -0.26627454825959934           1.937027888348726e-12              2.7926629194943542e-11       
                      -1.8638749615098038e-17                          125                                         2283.8847474893391                  -3.374902784789243e-09                -6.748237193126373e-21             -3.8386545104978641e-20         7.4757842108012508e-19             14.311804931149279                     15.717324514638554                       17.415060462005904               0                       0                    0                     0                     0                     -3.1552271766284373e-17    1.2204330275211192e-17    23                            3                           4                     0.98600849269638657 -0.021108158463022868  0.002594909297864643    0.89381261875358964       0.30459974817626384      -0.26469334061505762           1.9642418644218754e-12              2.989087105936542e-11       
                      -1.8645199513809007e-17                          131                                         2040.4674532450872                  -3.2368155089636577e-09                -6.4498987109680158e-21             -4.138624941027018e-20         7.5568218086710602e-19             14.185093477634767                     15.717324514638554                       17.415060462005904               0                       0                    0                     0                     0                     -3.1509173945044399e-17    1.2149678499778558e-17    24                            4                           4                     0.98466168578263735 -0.021446495957638922  0.0009300092921992112    0.88342592265883035       0.3379049085295332       -0.26014915888220158           1.952132171425224e-12              3.184300323079064e-11       
                      -1.8645199513809007e-17                          132                                         2040.4674532450872                  -3.2368155089636577e-09                 0                               -4.138624941027018e-20         7.5568218086710602e-19             14.185093477634767                     14.185093477634767                       17.415060462005904               0                       0                    0                     0                     0                     -3.1509173945044399e-17    1.2149678499778558e-17    25                            0                           5                     0.98466168578263735 -0.021446495957638922  0.0009300092921992112    0.88342592265883035       0.3379049085295332       -0.26014915888220158           0                                3.184300323079064e-11       
                      -1.865137136009167e-17                          138                                         2091.9707361262276                  -3.1268258442654752e-09                -6.1718462826647146e-21             -4.4351944538211745e-20         7.6216280853110918e-19             13.70018877874713                      14.185093477634767                       17.415060462005904               0                       0                    0                     0                     0                     -3.1464625014909036e-17    1.2095442790824467e-17    26                            1                           5                     0.98326953171590725 -0.021324453883046726 -0.00070327646910601648    0.87294683467354162       0.37080740659516853      -0.25287011487614569           1.9433897362918402e-12              3.3786392967082482e-11       
                      -1.8657814460700336e-17                          144                                         2326.9494403527792                  -3.0960795663069623e-09                -6.4431006086660574e-21             -4.7394365801548194e-20         7.636603126014071e-19             12.54228857965451                      14.185093477634767                       17.415060462005904               0                       0                    0                     0                     0                     -3.1416121627786199e-17    1.2042041220286005e-17    27                            2                           5                     0.98175380086831865 -0.02070096055344325 -0.0023875742961582914    0.86168788734033575       0.40510274097326232      -0.24225324082080227           2.0784003152924296e-12              3.5864793282374911e-11       
                      -1.8663874884936286e-17                          156                                         2613.2958358554192                  -3.1702778352143121e-09                -6.0604242359482632e-21             -5.0039764246024592e-20         7.6025133130259038e-19             11.020088452619531                     14.185093477634767                       17.415060462005904               0                       0                    0                     0                     0                     -3.137048234387767e-17    1.1996395891884819e-17    28                            3                           5                     0.98032757324617703 -0.019681847008751457 -0.00387068088239755    0.85119469010193338       0.43566171535991466      -0.22993869657325502           1.9401424966018226e-12              3.7804935778976734e-11       
                      -1.8669703126476311e-17                          162                                         2899.0245909517521                  -3.3166071556001671e-09                -5.8282415400275005e-21             -5.2286741766817298e-20         7.571914512131399e-19             10.285187347400475                     14.185093477634767                       17.415060462005904               0                       0                    0                     0                     0                     -3.1327715544518106e-17    1.1953107708595471e-17    29                            4                           5                     0.97899111076619061 -0.018385049543413752 -0.0051462304672368177    0.8415055487283315        0.46224750302329592      -0.21669072563756364           1.8004950826016505e-12              3.9605430861578386e-11       
                      -1.8669703126476311e-17                          163                                         2899.0245909517521                  -3.3166071556001671e-09                 0                               -5.2286741766817298e-20         7.571914512131399e-19             10.285187347400475                     10.285187347400475                       17.415060462005904               0                       0                    0                     0                     0                     -3.1327715544518106e-17    1.1953107708595471e-17    30                            0                           6                     0.97899111076619061 -0.018385049543413752 -0.0051462304672368177    0.8415055487283315        0.46224750302329592      -0.21669072563756364           0                                3.9605430861578386e-11       
                      -1.8675793231887203e-17                          169                                         3147.382171338751                   -3.5110704762637183e-09                -6.0901054108910267e-21             -5.4295323498638726e-20         7.6065352474503962e-19             10.866496172240691                     10.866496172240691                       17.415060462005904               0                       0                    0                     0                     0                     -3.1284491018981904e-17    1.1902339585848301e-17    31                            1                           6                     0.97764034434318436 -0.016794773627814275 -0.0062961837305673162    0.83197315473902733       0.48653089695945129      -0.20207520109729557           1.7857607657718486e-12              4.1391191627350231e-11       