# ODT 1.0
# Table Start
# Title: mmArchive Data Table, Wed Jun 16 18:45:18 EDT 2010
# Columns: {Oxs_RungeKuttaEvolve:evolve:Total energy} {Oxs_RungeKuttaEvolve:evolve:Energy calc count} {Oxs_RungeKuttaEvolve:evolve:Max dm/dt} Oxs_RungeKuttaEvolve:evolve:dE/dt {Oxs_RungeKuttaEvolve:evolve:Delta E} Oxs_CubicAnisotropy::Energy Oxs_UniformExchange::Energy {Oxs_UniformExchange::Max Spin Ang} {Oxs_UniformExchange::Stage Max Spin Ang} {Oxs_UniformExchange::Run Max Spin Ang} Oxs_ScriptUZeeman::Energy Oxs_ScriptUZeeman::B Oxs_ScriptUZeeman::Bx Oxs_ScriptUZeeman::By Oxs_ScriptUZeeman::Bz Oxs_FixedZeeman::Energy Oxs_Demag::Energy    Oxs_TimeDriver::Iteration {Oxs_TimeDriver::Stage iteration} Oxs_TimeDriver::Stage Oxs_TimeDriver::mx   Oxs_TimeDriver::my   Oxs_TimeDriver::mz   Oxs_TimeDriver::mx_corner Oxs_TimeDriver::my_corner Oxs_TimeDriver::mz_corner {Oxs_TimeDriver::Last time step} {Oxs_TimeDriver::Simulation time}
# Units:                       J                                            {}                                        deg/ns                                 J/s                                  J                                J                           J                              deg                                    deg                                      deg                               J                      mT                   mT                    mT                    mT                      J                    J                       {}                            {}                          {}                   {}                   {}                   {}                      {}                        {}                        {}                            s                                 s                
                      -1.8548651660862003e-17                          1                                           2844.0141078203424                  -3.8080240385509298e-09                 0                               -8.9917260260424522e-22         0                               0                                      0                                        0                                0                       0                    0                     0                     0                     -3.1992002998750553e-17    1.3444250510491151e-17    0                             0                           0                     0.99975009371095458  0.019995001874219091  0.0099975009371095457    0.99975009371095458       0.019995001874219091       0.0099975009371095457           0                                0                         
                      -1.8548664380878198e-17                          7                                           2844.2234542728684                  -3.8079559694609518e-09                -1.2720016193803385e-23             -8.9892562106854006e-22         1.0249949467113674e-25             0.0061487701089286877                    0.0061487701089286877                      0.0061487701089286877              0                       0                    0                     0                     0                     -3.1992005196833306e-17    1.3444239639076681e-17    1                             1                           0                     0.99975016240104064  0.019990537389933949  0.0099995024776889183    0.99975063549161536       0.019993425820063002       0.0099461423185436132           3.3403491121500859e-15              3.3403491121500859e-15       
                      -1.8548715258639558e-17                          13                                          2845.0524920777693                  -3.8076777721844934e-09                -5.0877761361723894e-23             -8.9797879914091313e-22         2.5623086764833658e-24             0.030742449066238606                    0.030742449066238606                      0.030742449066238606              0                       0                    0                     0                     0                     -3.1992013622836883e-17    1.344419378068779e-17    2                             2                           0                     0.99975042571365247  0.019972670181785807  0.010007503620887731    0.99975273472739234       0.019987188812421595       0.0097407092944066399           1.3361396448600343e-14              1.670174556075043e-14       
                      -1.8548715258639558e-17                          14                                          2845.0524920777693                  -3.8076777721844934e-09                 0                               -8.9797879914091313e-22         2.5623086764833658e-24             0.030742449066238606                    0.030742449066238606                      0.030742449066238606              0                       0                    0                     0                     0                     -3.1992013622836883e-17    1.344419378068779e-17    3                             0                           1                     0.99975042571365247  0.019972670181785807  0.010007503620887731    0.99975273472739234       0.019987188812421595       0.0097407092944066399           0                                1.670174556075043e-14       
                      -1.8548918730616595e-17                          20                                          2848.2350753862729                  -3.806470334469323e-09                -2.0347197703529445e-22             -8.9484905287506172e-22         4.5185178213213739e-23             0.12908762830762546                    0.12908762830762546                      0.12908762830762546              0                       0                    0                     0                     0                     -3.1992041466725093e-17    1.344397239998316e-17    4                             1                           1                     0.99975129583515898  0.019901053298875666  0.010039427730620274    0.99976004574429622       0.019963316170509497       0.0089190022917714426           5.3445585794401374e-14              7.0147331355151797e-14       
                      -1.8549731852259876e-17                          26                                          2858.8309238365091                  -3.8001342658339524e-09                -8.1312164328036152e-22             -8.9283851351678545e-22         7.3901567221022295e-22             0.5215426578842639                     0.5215426578842639                       0.5215426578842639               0                       0                    0                     0                     0                     -3.1992059177057298e-17    1.3442481147638732e-17    5                             2                           1                     0.99975184928304051  0.019612235332471875  0.010165826736690442    0.99977193607239645       0.019885035916396204       0.0056326967858340172           2.1378234317760549e-13              2.839296745327573e-13       
                      -1.8549731852259876e-17                          27                                          2858.8309238365091                  -3.8001342658339524e-09                 0                               -8.9283851351678545e-22         7.3901567221022295e-22             0.5215426578842639                     0.5215426578842639                       0.5215426578842639               0                       0                    0                     0                     0                     -3.1992059177057298e-17    1.3442481147638732e-17    6                             0                           2                     0.99975184928304051  0.019612235332471875  0.010165826736690442    0.99977193607239645       0.019885035916396204       0.0056326967858340172           0                                2.839296745327573e-13       
                      -1.8552963267855768e-17                          33                                          2867.8816677293207                  -3.7517917894359541e-09                -3.2314155958937696e-21             -1.051116708372404e-21         1.1726530022691305e-20             2.0492869214586142                     2.0492869214586142                       2.0492869214586142               0                       0                    0                     0                     0                     -3.1990643980589181e-17    1.3427005299419093e-17    7                             1                           2                     0.99970762439341176  0.018420551712638455  0.010650031783754729    0.99954423874551246       0.019847845493226549      -0.007496451753786269           8.5512937271042198e-13              1.1390590472431793e-12       
                      -1.856090700002001e-17                          39                                          2835.6878383446524                  -3.5002887965018496e-09                -7.9437321642418527e-21             -2.574482599454892e-21         9.2264462428035117e-20             5.8018770510873932                     5.8018770510873932                       5.8018770510873932               0                       0                    0                     0                     0                     -3.1976830691213263e-17    1.3326233711364671e-17    8                             2                           2                     0.99927595910041433  0.01513561692627133  0.011719627060851149    0.99706687644071901       0.021786995788670008      -0.04078381538398658           2.18603394495484e-12              3.3250929921980192e-12       
                      -1.856090700002001e-17                          40                                          2835.6878383446524                  -3.5002887965018496e-09                 0                               -2.574482599454892e-21         9.2264462428035117e-20             5.8018770510873932                     5.8018770510873932                       5.8018770510873932               0                       0                    0                     0                     0                     -3.1976830691213263e-17    1.3326233711364671e-17    9                             0                           3                     0.99927595910041433  0.01513561692627133  0.011719627060851149    0.99706687644071901       0.021786995788670008      -0.04078381538398658           0                                3.3250929921980192e-12       
                      -1.8568378016485784e-17                          46                                          2617.9190008861474                  -3.1247261606689435e-09                -7.4710164657740816e-21             -5.4736489843183035e-21         2.2938286248344975e-19             10.28466959015682                      10.28466959015682                        10.28466959015682                0                       0                    0                     0                     0                     -3.194977541250962e-17    1.3157488182524705e-17    10                            1                           3                     0.99843048164092552  0.011457246826569935  0.012541913111095152    0.99207922712619234       0.026951914800372897      -0.074336167419734825           2.2541648618805364e-12              5.5792578540785559e-12       
                      -1.8574874847443625e-17                          52                                          2405.5320362628222                  -2.723994448542861e-09                -6.4968309578413944e-21             -9.1140076924806137e-21         3.8587948184986417e-19             13.601462588049815                     13.601462588049815                       13.601462588049815               0                       0                    0                     0                     0                     -3.1914520147844481e-17    1.2962879826243472e-17    11                            2                           3                     0.99732875462013992  0.0076234912024241647  0.013047454585213057    0.98539142914016897       0.035364415358108657      -0.10634900114722698           2.2270384774760962e-12              7.8062963315546521e-12       
                      -1.8574874847443625e-17                          53                                          2405.5320362628222                  -2.723994448542861e-09                 0                               -9.1140076924806137e-21         3.8587948184986417e-19             13.601462588049815                     13.601462588049815                       13.601462588049815               0                       0                    0                     0                     0                     -3.1914520147844481e-17    1.2962879826243472e-17    12                            0                           4                     0.99732875462013992  0.0076234912024241647  0.013047454585213057    0.98539142914016897       0.035364415358108657      -0.10634900114722698           0                                7.8062963315546521e-12       
                      -1.8580586084820231e-17                          59                                          2346.1140469426696                  -2.4103163282564431e-09                -5.7112373766049685e-21             -1.299687524106019e-20         5.3540499656264388e-19             15.420490458489731                     15.420490458489731                       15.420490458489731               0                       0                    0                     0                     0                     -3.1875201137978301e-17    1.2772206931836488e-17    13                            1                           4                     0.99610003556182181  0.0036660525509796369  0.013230715769625225    0.97759143035776419       0.047353448130579998      -0.13710297423905962           2.2384835250664725e-12              1.0044779856621123e-11       
                      -1.8585809937243964e-17                          65                                          2396.0735011925767                  -2.2577299808894877e-09                -5.2238524237318868e-21             -1.6708133526377449e-20         6.5807035451755671e-19             16.243921827618745                     16.243921827618745                       16.243921827618745               0                       0                    0                     0                     0                     -3.1835662909456073e-17    1.2608490751220933e-17    14                            2                           4                     0.99486446592050226 -0.00033050776434044349  0.013078184668289233    0.96920045250939524       0.063408532590416525      -0.16629561370968826           2.257651219375056e-12              1.230243107599618e-11       
                      -1.8585809937243964e-17                          66                                          2396.0735011925767                  -2.2577299808894877e-09                 0                               -1.6708133526377449e-20         6.5807035451755671e-19             16.243921827618745                     16.243921827618745                       16.243921827618745               0                       0                    0                     0                     0                     -3.1835662909456073e-17    1.2608490751220933e-17    15                            0                           5                     0.99486446592050226 -0.00033050776434044349  0.013078184668289233    0.96920045250939524       0.063408532590416525      -0.16629561370968826           0                                1.230243107599618e-11       
                      -1.8590932924021955e-17                          72                                          2483.9068996392543                  -2.31115878258123e-09                -5.1229867779938259e-21             -1.9978248077093492e-20         7.4013308730683863e-19             16.742843332968949                     16.742843332968949                       16.742843332968949               0                       0                    0                     0                     0                     -3.1798784964071981e-17    1.2487697200820281e-17    16                            1                           5                     0.99371203012724929 -0.0042412466062026625  0.012588073697707741    0.9606371642373176        0.083909094577248849      -0.19296562636392672           2.2642488993158065e-12              1.4566679975311988e-11       
                      -1.8595810730381995e-17                          84                                          2530.9424361741471                  -2.5133321236420262e-09                -4.8778063600375558e-21             -2.248141365709247e-20         7.7668692077390674e-19             17.194817445388775                     17.194817445388775                       17.194817445388775               0                       0                    0                     0                     0                     -3.176867246082218e-17    1.241865622332337e-17    17                            2                           5                     0.99277101440069293 -0.0075842751864819286  0.011872130451828701    0.95295469838372948       0.10601063314879298      -0.21377880437684441           2.0323349429934277e-12              1.6599014918305413e-11       
                      -1.8595810730381995e-17                          85                                          2530.9424361741471                  -2.5133321236420262e-09                 0                               -2.248141365709247e-20         7.7668692077390674e-19             17.194817445388775                     17.194817445388775                       17.194817445388775               0                       0                    0                     0                     0                     -3.176867246082218e-17    1.241865622332337e-17    18                            0                           6                     0.99277101440069293 -0.0075842751864819286  0.011872130451828701    0.95295469838372948       0.10601063314879298      -0.21377880437684441           0                                1.6599014918305413e-11       
                      -1.8600795732974567e-17                          91                                          2559.3031936382818                  -2.7774812932269109e-09                -4.9850025925744758e-21             -2.4516657141900385e-20         7.8456916117894664e-19             17.415060462005389                     17.415060462005389                       17.415060462005389               0                       0                    0                     0                     0                     -3.1742541303090269e-17    1.2381693066078653e-17    19                            1                           6                     0.99195441572157073 -0.010484354820669397  0.010988781719338323    0.9457723753433499        0.12921157430761654      -0.22994860894020797           1.8886056780635885e-12              1.8487620596369002e-11       
                      -1.8606209611464406e-17                          97                                          2590.9708027699353                  -3.0587652096386806e-09                -5.4138784898381544e-21             -2.6383999184951024e-20         7.7648281198117343e-19             17.201020762909689                     17.415060462005389                       17.415060462005389               0                       0                    0                     0                     0                     -3.1717331524200465e-17    1.2361023099939836e-17    20                            2                           6                     0.99116661013126439 -0.013087202409216356  0.009935567944331921    0.93852205024934232       0.15400782784195191      -0.24282034516985601           1.8558997180641387e-12              2.0343520314433142e-11       
# Table End
