# ODT 1.0
# Table Start
# Title: mmArchive Data Table, Wed Aug 17 23:55:47 EDT 2011
# Columns: {Oxs_CGEvolve::Max mxHxm} {Oxs_CGEvolve::Total energy} {Oxs_CGEvolve::Delta E} {Oxs_CGEvolve::Bracket count} {Oxs_CGEvolve::Line min count} {Oxs_CGEvolve::Conjugate cycle count} {Oxs_CGEvolve::Cycle count} {Oxs_CGEvolve::Cycle sub count} {Oxs_CGEvolve::Energy calc count} Oxs_CubicAnisotropy::Energy Oxs_RandomSiteExchange::Energy {Oxs_RandomSiteExchange::Max Spin Ang} {Oxs_RandomSiteExchange::Stage Max Spin Ang} {Oxs_RandomSiteExchange::Run Max Spin Ang} Oxs_UZeeman::Energy  Oxs_UZeeman::B       Oxs_UZeeman::Bx      Oxs_UZeeman::By      Oxs_UZeeman::Bz      Oxs_Demag::Energy    Oxs_MinDriver::Iteration {Oxs_MinDriver::Stage iteration} Oxs_MinDriver::Stage Oxs_MinDriver::mx    Oxs_MinDriver::my    Oxs_MinDriver::mz   
# Units:              A/m                         J                          J                         {}                             {}                                {}                               {}                            {}                               {}                              J                            J                                 deg                                       deg                                         deg                              J                 mT                   mT                   mT                   mT                     J                       {}                           {}                         {}                 {}                   {}                   {}           
              4625538.5698586386          9.5404428119480048e-16       9.5404428119480048e-16        0                              0                                 1                                1                             1                                1                             -3.6202169568353203e-19           9.0051453665807132e-16                178.5986717229849                         178.5986717229849                           178.5986717229849               0                    0                    0                    0                    0                    5.3891766232413944e-17    0                            0                          0                   -0.00320882403211302  0.016552589984772589  0.0016735888350166252
              4624977.8040110096          9.538375075697422e-16      -2.0677362505828355e-19        1                              0                                 1                                1                             1                                2                             -3.6201935721203246e-19           9.0031022135369438e-16                178.58020122134391                        178.5986717229849                           178.5986717229849               0                    0                    0                    0                    0                    5.3889305573258183e-17    1                            1                          0                   -0.0032102569205655976  0.016559844926403292  0.0016725579126159449
              4623273.9430976436          9.532171797974539e-16      -6.2032777228829692e-19        2                              0                                 1                                1                             1                                3                             -3.6201234582467825e-19           8.9969727285312028e-16                178.52085738003569                        178.5986717229849                           178.5986717229849               0                    0                    0                    0                    0                    5.3881919290159007e-17    2                            2                          0                   -0.003214550543811636  0.016581609007505081  0.0016694654150007761
              4623730.0184106231          9.5321870649831366e-16       1.5267008597649557e-21        2                              0                                 2                                2                             2                                4                             -3.6201234582467825e-19           8.9969727285312028e-16                178.52085738003569                        178.52085738003569                          178.5986717229849               1.5267008597992884e-21  2.0024984394500787   2                    0.10000000000000001  0                    5.3881919290159007e-17    3                            0                          1                   -0.003214550543811636  0.016581609007505081  0.0016694654150007761
              4623157.690586214           9.5301184275202227e-16      -2.0686374629139734e-19        3                              0                                 2                                2                             0                                5                             -3.6201000066446356e-19           8.9949287313642342e-16                178.49983693075635                        178.52085738003569                          178.5986717229849               1.5272549153436479e-21  2.0024984394500787   2                    0.10000000000000001  0                    5.3879452361348353e-17    4                            1                          1                   -0.0032157801303855371  0.016588886503221729  0.0016684300683048295
              4621419.1755741844          9.5239124522043717e-16      -6.2059753158509245e-19        4                              0                                 2                                2                             0                                6                             -3.6200296955210714e-19           8.9887967200243839e-16                178.43343764466366                        178.52085738003569                          178.5986717229849               1.5289138715537963e-21  2.0024984394500787   2                    0.10000000000000001  0                    5.3872047273679303e-17    5                            2                          1                   -0.0032194638371784677  0.016610718257513105  0.0016653243384882122
              4621877.5876284698          9.5239277413430875e-16       1.5289138715755405e-21        4                              0                                 3                                3                             1                                7                             -3.6200296955210714e-19           8.9887967200243839e-16                178.43343764466366                        178.43343764466366                          178.5986717229849               3.0578277431075927e-21  4.0049968789001573   4                    0.20000000000000001  0                    5.3872047273679303e-17    6                            0                          2                   -0.0032194638371784677  0.016610718257513105  0.0016653243384882122
              4621293.7297958126          9.5218581877703008e-16      -2.0695535727866709e-19        5                              0                                 3                                3                             0                                8                             -3.6200061790266982e-19           8.9867518666903889e-16                178.41025131459361                        178.43343764466366                          178.5986717229849               3.0586733434696963e-21  4.0049968789001573   4                    0.20000000000000001  0                    5.3869574052549614e-17    7                            1                          2                   -0.0032204894711765145  0.016618018431815807  0.0016642845765249996
              4619520.6568033714          9.5156494701722395e-16      -6.2087175980613176e-19        6                              0                                 3                                3                             0                                9                             -3.6199356766608429e-19           8.9806172928890454e-16                178.3378814449629                         178.43343764466366                          178.5986717229849               3.0612037098139395e-21  4.0049968789001573   4                    0.20000000000000001  0                    5.3862150092277143e-17    8                            2                          2                   -0.003223561309938395  0.0166399182329247   0.0016611656418614846
              4619981.4025638858          9.5156647761907899e-16       1.5306018550385032e-21        6                              0                                 4                                4                             1                                10                            -3.6199356766608429e-19           8.9806172928890454e-16                178.3378814449629                         178.3378814449629                           178.5986717229849               4.5918055647209138e-21  6.0074953183502364   6                    0.29999999999999999  0                    5.3862150092277143e-17    9                            0                          3                   -0.003223561309938395  0.0166399182329247   0.0016611656418614846
              4619386.0469331928          9.5135942916148429e-16      -2.0704845759469956e-19        7                              0                                 4                                4                             0                                11                            -3.6199120972852422e-19           8.9785715713626775e-16                178.31286731849022                        178.3378814449629                           178.5986717229849               4.5926789257058278e-21  6.0074953183502364   6                    0.29999999999999999  0                    5.3859670556021281e-17    10                           1                          3                   -0.0032243823343714416  0.016647241211326706  0.0016601214738970924
              4617578.5128024034          9.5073827870583588e-16      -6.2115045564841385e-19        8                              0                                 4                                4                             0                                12                            -3.619841409732896e-19           8.9724343990278959e-16                178.23546661991509                        178.3378814449629                           178.5986717229849               4.5952893366804214e-21  6.0074953183502364   6                    0.29999999999999999  0                    5.3852227654682856e-17    11                           2                          3                   -0.0032268403346503685  0.016669209435920443  0.0016569893624567011
              4618041.5892169569          9.5073981046894801e-16       1.5317631121307454e-21        8                              0                                 5                                5                             1                                13                            -3.619841409732896e-19           8.9724343990278959e-16                178.23546661991509                        178.23546661991509                          178.5986717229849               6.1270524489072315e-21  8.0099937578003146   8                    0.40000000000000002  0                    5.3852227654682856e-17    12                           0                          4                   -0.0032268403346503685  0.016669209435920443  0.0016569893624567011
              4617434.7682397179          9.5053266742211576e-16      -2.0714304683224531e-19        9                              0                                 5                                5                             0                                14                            -3.6198177695030744e-19           8.9703877973021815e-16                178.20891358292997                        178.23546661991509                          178.5986717229849               6.1276884965289676e-21  8.0099937578003146   8                    0.40000000000000002  0                    5.3849741780350206e-17    13                           1                          4                   -0.0032274560862043636  0.01667655534495479  0.001655940797997143
              4615592.8705352955          9.4991123380425239e-16      -6.2143361786336912e-19        10                             0                                 5                                5                             0                                15                            -3.6197469028679089e-19           8.9642479904176731e-16                178.12727685943014                        178.23546661991509                          178.5986717229849               6.129583718238774e-21  8.0099937578003146   8                    0.40000000000000002  0                    5.3842279869053015e-17    14                           2                          4                   -0.0032292982585750622  0.016698592372761074  0.0016527955385713506
              4616058.2745347191          9.4991276620018204e-16       1.532395929643596e-21        10                             0                                 6                                6                             1                                16                            -3.6197469028679089e-19           8.9642479904176731e-16                178.12727685943014                        178.12727685943014                          178.5986717229849               7.6619796477984701e-21  10.012492197250394   10                   0.5                  0                    5.3842279869053015e-17    15                           0                          5                   -0.0032292982585750622  0.016698592372761074  0.0016527955385713506
              4615440.0209033173          9.4970552707557984e-16      -2.072391246021987e-19        11                             0                                 6                                6                             0                                17                            -3.6197232038268163e-19           8.9622004965041174e-16                178.09942715263048                        178.12727685943014                          178.5986717229849               7.6621120018492589e-21  10.012492197250394   10                   0.5                  0                    5.3839787633549084e-17    16                           1                          5                   -0.0032297080675772901  0.016705961339987679  0.0016517425873648222
              4613563.8579114527          9.4908380583032396e-16      -6.2172124525587329e-19        12                             0                                 6                                6                             0                                18                            -3.619652164260167e-19           8.9560580191089834e-16                178.01421676668429                        178.12727685943014                          178.5986717229849               7.6624928827201926e-21  10.012492197250394   10                   0.5                  0                    5.3832306642968744e-17    17                           2                          5                   -0.0032309324035408012  0.016728067553815312  0.0016485842094728165
              4614031.5864097457          9.4908533832890058e-16       1.5324985766190138e-21        12                             0                                 7                                7                             1                                19                            -3.619652164260167e-19           8.9560580191089834e-16                178.01421676668429                        178.01421676668429                          178.5986717229849               9.1949914592642275e-21  12.014990636700473   12                   0.59999999999999998  0                    5.3832306642968744e-17    18                           0                          6                   -0.0032309324035408012  0.016728067553815312  0.0016485842094728165
              4613401.9330570623          9.4887800163836738e-16      -2.0733669053320345e-19        13                             0                                 7                                7                             0                                20                            -3.6196284084666183e-19           8.9540096210374209e-16                177.98527126368651                        178.01421676668429                          178.5986717229849               9.1943524167747692e-21  12.014990636700473   12                   0.59999999999999998  0                    5.3829808023054724e-17    19                           1                          6                   -0.0032311355939264996  0.016735459707827839  0.0016475268815117239
              4611491.6037842305          9.4825598830168313e-16      -6.2201333668424743e-19        14                             0                                 7                                7                             0                                21                            -3.6195572021672496e-19           8.9478644372262706e-16                177.89703464310051                        178.01421676668429                          178.5986717229849               9.192415837939395e-21  12.014990636700473   12                   0.59999999999999998  0                    5.3822307883433987e-17    20                           2                          6                   -0.0032317400658094732  0.016757635493587855  0.0016443554154065734
# Table End
