# ODT 1.0
# Table Start
# Title: mmArchive Data Table, Thu Jun 25 23:35:37 EDT 2020
# Columns: {Oxs_CGEvolve::Max mxHxm} {Oxs_CGEvolve::Total energy} {Oxs_CGEvolve::Delta E} {Oxs_CGEvolve::Bracket count} {Oxs_CGEvolve::Line min count} {Oxs_CGEvolve::Conjugate cycle count} {Oxs_CGEvolve::Cycle count} {Oxs_CGEvolve::Cycle sub count} {Oxs_CGEvolve::Energy calc count} Oxs_CubicAnisotropy::Energy Oxs_RandomSiteExchange::Energy {Oxs_RandomSiteExchange::Max Spin Ang} {Oxs_RandomSiteExchange::Stage Max Spin Ang} {Oxs_RandomSiteExchange::Run Max Spin Ang} Oxs_UZeeman::Energy  Oxs_UZeeman::B       Oxs_UZeeman::Bx      Oxs_UZeeman::By      Oxs_UZeeman::Bz      Oxs_Demag::Energy    Oxs_MinDriver::Iteration {Oxs_MinDriver::Stage iteration} Oxs_MinDriver::Stage Oxs_MinDriver::mx    Oxs_MinDriver::my    Oxs_MinDriver::mz   
# Units:              A/m                         J                          J                         {}                             {}                                {}                               {}                            {}                               {}                              J                            J                                 deg                                       deg                                         deg                              J                 mT                   mT                   mT                   mT                     J                       {}                           {}                         {}                 {}                   {}                   {}           
              4625538.5698623871          9.5404428119477247e-16       9.5404428119477247e-16        0                              0                                 1                                1                             0                                1                             -3.6202169568353203e-19           9.0051453665807014e-16                178.59867172298453                        178.59867172298453                          178.59867172298453              0                    0                    0                    0                    0                    5.3891766232385927e-17    0                            0                          0                   -0.0032088240321130296  0.016552589984772562  0.001673588835016635
              4624977.8040147638          9.5383750756971439e-16      -2.0677362505808634e-19        1                              0                                 1                                1                             0                                2                             -3.6201935721203246e-19           9.0031022135369635e-16                178.58020122134297                        178.59867172298453                          178.59867172298453              0                    0                    0                    0                    0                    5.3889305573230184e-17    1                            1                          0                   -0.0032102569205655599  0.016559844926403288  0.0016725579126159289
              4486613.005393018           9.1247464467951832e-16      -4.1362862890196067e-17        2                              0                                 1                                1                             0                                3                             -3.6158277338286352e-19           8.5945345220333856e-16                179.63597392706262                        179.63597392706262                          179.63597392706262              0                    0                    0                    0                    0                    5.3382775249562647e-17    2                            2                          0                   -0.0034817451441481206  0.018011575359386391  0.0014669748380808437
              4568238.4561330983          8.7014539433881849e-16      -4.2329250340699831e-17        3                              0                                 2                                2                             0                                4                             -3.6117477686141328e-19           8.1769462353693393e-16                179.31452770754561                        179.63597392706262                          179.63597392706262              0                    0                    0                    0                    0                    5.2811945578745895e-17    3                            3                          0                   -0.0037213994749542988  0.01962285669553257  0.0012284593340710569
              4499366.3001987152          8.2949117185920373e-16      -4.0654222479614758e-17        4                              0                                 3                                3                             0                                5                             -3.6091929110728744e-19           7.7763965616777546e-16                179.23797898014899                        179.63597392706262                          179.63597392706262              0                    0                    0                    0                    0                    5.2212434982535619e-17    4                            4                          0                   -0.0039074537564995765  0.021325572653635955  0.00098204659687338414
              4498784.4913971238          8.2949299021128303e-16       1.8183520792992948e-21        4                              0                                 4                                4                             0                                6                             -3.6091929110728744e-19           7.7763965616777546e-16                179.23797898014899                        179.23797898014899                          179.63597392706262              1.8183520792433728e-21  2.0024984394500787   2                    0.10000000000000001  0                    5.2212434982535619e-17    5                            0                          1                   -0.0039074537564995765  0.021325572653635955  0.00098204659687338414
              4295544.3564606262          7.8948793110029088e-16      -4.0005059110992153e-17        5                              0                                 4                                4                             0                                7                             -3.6085012849550433e-19           7.3827456979018502e-16                179.76428300943414                        179.76428300943414                          179.76428300943414              1.818500555553233e-21  2.0024984394500787   2                    0.10000000000000001  0                    5.1572392938045808e-17    6                            1                          1                   -0.0040009335980686648  0.023190529600334377  0.00073536837620221459
              4091282.0160448384          7.4926240157750461e-16      -4.0225529522786268e-17        6                              0                                 5                                5                             0                                8                             -3.6093726730886826e-19           6.98744649350882e-16                179.22253559466049                        179.76428300943414                          179.76428300943414              1.7735048848349619e-21  2.0024984394500787   2                    0.10000000000000001  0                    5.0876915989046638e-17    7                            2                          1                   -0.004036102687408556  0.025300026097078137  0.00049579128442070691
              3924829.2999526467          7.0909684684313347e-16      -4.0165554734371139e-17        7                              0                                 6                                6                             0                                9                             -3.6108777957628959e-19           6.5932860281851399e-16                179.60917628249317                        179.76428300943414                          179.76428300943414              1.6776509303553885e-21  2.0024984394500787   2                    0.10000000000000001  0                    5.0127654153265304e-17    8                            3                          1                   -0.0040061507986133022  0.027696424398660397  0.00027646638092723079
              3848895.6759934337          6.6961221966214719e-16      -3.9484627180986285e-17        8                              0                                 7                                7                             0                                10                            -3.6118336860970024e-19           6.2063746973745962e-16                179.2567924726487                         179.76428300943414                          179.76428300943414              1.5281509382174446e-21  2.0024984394500787   2                    0.10000000000000001  0                    4.9334405142358961e-17    9                            4                          1                   -0.0039074766123880526  0.030394815428465203  8.8957611841050896e-05
              3850448.5516388854          6.6961374781308535e-16       1.5281509381616914e-21        8                              0                                 8                                8                             0                                11                            -3.6118336860970024e-19           6.2063746973745962e-16                179.2567924726487                         179.2567924726487                           179.76428300943414              3.0563018764348893e-21  4.0049968789001573   4                    0.20000000000000001  0                    4.9334405142358961e-17    10                           0                          2                   -0.0039074766123880526  0.030394815428465203  8.8957611841050896e-05
              4013300.4809835036          6.3189562336155333e-16      -3.7718124451532023e-17        9                              0                                 8                                8                             0                                12                            -3.6113448840883195e-19           5.8373294734671258e-16                178.80295986539792                        179.2567924726487                           179.76428300943414              2.596745474144265e-21  4.0049968789001573   4                    0.20000000000000001  0                    4.8521213757775396e-17    11                           1                          2                   -0.0036962223295601928  0.033350298557699679 -5.9462533735941268e-05
              4158307.880755919           5.9806527062169915e-16      -3.3830352739854179e-17        10                             0                                 9                                9                             0                                13                            -3.6091806940301997e-19           5.5068029308949194e-16                179.14755832180307                        179.2567924726487                           179.76428300943414              2.077857530380962e-21  4.0049968789001573   4                    0.20000000000000001  0                    4.7743817744079798e-17    12                           2                          2                   -0.0034414665097690861  0.036362806283178999 -0.00016821226318503577
              4132467.9942567432          5.6750758126720049e-16      -3.0557689354498658e-17        11                             0                                 10                               10                            0                                14                            -3.6056324405054001e-19           5.2086395814767435e-16                178.4460462225646                         179.2567924726487                           179.76428300943414              1.5233985543633542e-21  4.0049968789001573   4                    0.20000000000000001  0                    4.7002662965022282e-17    13                           3                          2                   -0.0031603110578148283  0.039403118744369067 -0.00025092813945147736
              3922550.132628053           5.3873557358686737e-16      -2.8772007680333115e-17        12                             0                                 11                               11                            0                                15                            -3.6010549648326856e-19           4.9282276601970713e-16                177.49686905150426                        179.2567924726487                           179.76428300943414              9.326264258674897e-22  4.0049968789001573   4                    0.20000000000000001  0                    4.6271980437217638e-17    14                           4                          2                   -0.0028563541819819705  0.042554795735459575 -0.00032205910308073267
              3923944.4875812833          5.3873603990008029e-16       4.6631321291811294e-22        12                             0                                 12                               12                            0                                16                            -3.6010549648326856e-19           4.9282276601970713e-16                177.49686905150426                        177.49686905150426                          179.76428300943414              1.3989396388012356e-21  6.0074953183502364   6                    0.29999999999999999  0                    4.6271980437217638e-17    15                           0                          3                   -0.0028563541819819705  0.042554795735459575 -0.00032205910308073267
              3739653.0181829366          5.1048612512448545e-16      -2.824991477559484e-17        13                             0                                 12                               12                            0                                17                            -3.5958387344143987e-19           4.6532073408838376e-16                177.17506693124454                        177.49686905150426                          179.76428300943414              3.4938669072074113e-22  6.0074953183502364   6                    0.29999999999999999  0                    4.5524625522852445e-17    16                           1                          3                   -0.0024786758792854826  0.045934072890702386 -0.00039423342524018689
              3683800.0371264513          4.8302468001355535e-16      -2.7461445110930106e-17        14                             0                                 13                               13                            0                                18                            -3.5906613351893805e-19           4.3861433776738869e-16                177.915343597722                          177.915343597722                            179.76428300943414             -7.6381743540879979e-22  6.0074953183502364   6                    0.29999999999999999  0                    4.4770172197120989e-17    17                           2                          3                   -0.0020774446714620703  0.049505325048083249 -0.00047806599023914823
              3790588.816143848           4.5733474499607918e-16      -2.5689935017476169e-17        15                             0                                 14                               14                            0                                19                            -3.5861190205060796e-19           4.1365571191423521e-16                178.93682532043618                        178.93682532043618                          179.76428300943414             -1.9010489461181451e-21  6.0074953183502364   6                    0.29999999999999999  0                    4.4039546032840618e-17    18                           3                          3                   -0.0016661643007495636  0.053125879203721423 -0.00058054449541975633
              3759594.2628569854          4.3436824859780158e-16      -2.2966496398277595e-17        16                             0                                 15                               15                            0                                20                            -3.5822510354354465e-19           3.913633219896458e-16                177.39900943837554                        178.93682532043618                          179.76428300943414             -3.022393246563516e-21  6.0074953183502364   6                    0.29999999999999999  0                    4.3366174104945889e-17    19                           4                          3                   -0.0012567354126562359  0.056617971238161889 -0.00070190536321143343
              3758361.6930385446          4.3436724113338604e-16      -1.0074644155357691e-21        16                             0                                 16                               16                            0                                21                            -3.5822510354354465e-19           3.913633219896458e-16                177.39900943837554                        177.39900943837554                          179.76428300943414             -4.0298576620846823e-21  8.0099937578003146   8                    0.40000000000000002  0                    4.3366174104945889e-17    20                           0                          4                   -0.0012567354126562359  0.056617971238161889 -0.00070190536321143343
              3613347.3676133766          4.1304829532185243e-16      -2.1318945811533618e-17        17                             0                                 16                               16                            0                                22                            -3.5783658172782065e-19           3.7068702108520016e-16                179.62253965469577                        179.62253965469577                          179.76428300943414             -5.708204664517805e-21  8.0099937578003146   8                    0.40000000000000002  0                    4.2724819023044575e-17    21                           1                          4                   -0.00077519588591952048  0.060099266659936028 -0.00084604170794513368
              3717174.9976718589          3.9268741702203361e-16      -2.0360878299818814e-17        18                             0                                 17                               17                            0                                23                            -3.5738310994565103e-19           3.5095383902615315e-16                176.84166922431558                        179.62253965469577                          179.76428300943414             -7.5294909391525079e-21  8.0099937578003146   8                    0.40000000000000002  0                    4.2098490596765285e-17    22                           2                          4                   -0.00024210577875226772  0.063666263537175291 -0.0010169848227473824
              3692646.8044025307          3.7454910300410145e-16      -1.8138314017932162e-17        19                             0                                 18                               18                            0                                24                            -3.5688611331240688e-19           3.3338556589436508e-16                178.96850832880037                        179.62253965469577                          179.76428300943414             -9.4004658067742661e-21  8.0099937578003146   8                    0.40000000000000002  0                    4.1529823688855559e-17    23                           3                          4                    0.00031779298285074909  0.067085279458409405 -0.0012022785044126856
              3530460.4831255907          3.5778003443767314e-16      -1.6769068566428315e-17        20                             0                                 19                               19                            0                                25                            -3.5635779487893573e-19           3.1715178581247423e-16                174.55007827955325                        179.62253965469577                          179.76428300943414             -1.1401790963006223e-20  8.0099937578003146   8                    0.40000000000000002  0                    4.0996008211040841e-17    24                           4                          4                    0.00092961207155014376  0.070484250467482815 -0.0014027678460881491
              3530063.6861477615          3.5777718398993237e-16      -2.8504477407650373e-21        20                             0                                 20                               20                            0                                26                            -3.5635779487893573e-19           3.1715178581247423e-16                174.55007827955325                        174.55007827955325                          179.76428300943414             -1.425223870375777e-20  10.012492197250394   10                   0.5                  0                    4.0996008211040841e-17    25                           0                          5                    0.00092961207155014376  0.070484250467482815 -0.0014027678460881491
              3235583.2647751579          3.4167528197600533e-16      -1.6101902013927042e-17        21                             0                                 20                               20                            0                                27                            -3.5580941803630453e-19           3.0157150488116867e-16                173.26084191668744                        174.55007827955325                          179.76428300943414             -1.7213689155965628e-20  10.012492197250394   10                   0.5                  0                    4.0476800202028957e-17    26                           1                          5                    0.0016790479253920624  0.074004598716942593 -0.0016209140430545718
              3469089.0802795733          3.2560855251617002e-16      -1.6066729459835315e-17        22                             0                                 21                               21                            0                                28                            -3.5523277188493639e-19           2.8603204983051433e-16                173.49611853628463                        174.55007827955325                          179.76428300943414             -2.0665132658802123e-20  10.012492197250394   10                   0.5                  0                    3.9952400590199438e-17    27                           2                          5                    0.0025673724736166438  0.077809629645180553 -0.0018591664222701609
              3671165.8792201239          3.1192019095838096e-16      -1.3688361557789052e-17        23                             0                                 22                               22                            0                                29                            -3.5472347837993618e-19           2.7279875040349155e-16                175.87182264757229                        175.87182264757229                          179.76428300943414             -2.4112348961964668e-20  10.012492197250394   10                   0.5                  0                    3.9500276382231312e-17    28                           3                          5                    0.0034680114358427365  0.081341952295424222 -0.0020756135266488409
              3744753.5240848539          2.9999577763084167e-16      -1.1924413327539297e-17        24                             0                                 23                               23                            0                                30                            -3.542786084021015e-19           2.6127556328972593e-16                176.34615735282219                        176.34615735282219                          179.76428300943414             -2.7566106680242976e-20  10.012492197250394   10                   0.5                  0                    3.9102059056198082e-17    29                           4                          5                    0.0043808355820784415  0.084671455109949875 -0.0022680329949971148
              3745815.4723492824          2.9999026440950564e-16      -5.5132213360323584e-21        24                             0                                 24                               24                            0                                31                            -3.542786084021015e-19           2.6127556328972593e-16                176.34615735282219                        176.34615735282219                          179.76428300943414             -3.3079328016291573e-20  12.014990636700473   12                   0.59999999999999998  0                    3.9102059056198082e-17    30                           0                          6                    0.0043808355820784415  0.084671455109949875 -0.0022680329949971148
              3688254.603463402           2.8914539151467863e-16      -1.0844872894827008e-17        25                             0                                 24                               24                            0                                32                            -3.5389657764578227e-19           2.5080081856269238e-16                175.43519379188783                        176.34615735282219                          179.76428300943414             -3.7534329208546082e-20  12.014990636700473   12                   0.59999999999999998  0                    3.8736003858840594e-17    31                           1                          6                    0.0053780246443063239  0.087930805075051285 -0.0024403103638770962
              3503238.4096889012          2.7889547486135802e-16      -1.0249916653320604e-17        26                             0                                 25                               25                            0                                33                            -3.5358246887757165e-19           2.4090547717862628e-16                170.37420335986022                        176.34615735282219                          179.76428300943414             -4.2241329564377035e-20  12.014990636700473   12                   0.59999999999999998  0                    3.8385821481173716e-17    32                           2                          6                    0.0064387250921936296  0.091232422970591184 -0.0025943567081965096
              3201083.4209446255          2.6885122023487096e-16      -1.0044254626487067e-17        27                             0                                 26                               26                            0                                34                            -3.5334598827060632e-19           2.3121440542944243e-16                173.1505758815824                         176.34615735282219                          179.76428300943414             -4.7365935006604327e-20  12.014990636700473   12                   0.59999999999999998  0                    3.8037526728705763e-17    33                           3                          6                    0.007600162289636064  0.094694332366676209 -0.0027306619470626788
              2799010.8815043452          2.5864410512070997e-16      -1.0207115114160991e-17        28                             0                                 27                               27                            0                                35                            -3.5320248768998996e-19           2.2137402336356618e-16                175.67287837344583                        176.34615735282219                          179.76428300943414             -5.3140759854765934e-20  12.014990636700473   12                   0.59999999999999998  0                    3.7676425004688526e-17    34                           4                          6                    0.0089158113385943843  0.098458564138350649 -0.0028470671060982504
# Table End
