# ODT 1.0
# Table Start
# Title: mmArchive Data Table, Thu Jun 25 23:35:38 EDT 2020
# Columns: {Oxs_CGEvolve:evolve:Max mxHxm} {Oxs_CGEvolve:evolve:Total energy} {Oxs_CGEvolve:evolve:Delta E} {Oxs_CGEvolve:evolve:Bracket count} {Oxs_CGEvolve:evolve:Line min count} {Oxs_CGEvolve:evolve:Conjugate cycle count} {Oxs_CGEvolve:evolve:Cycle count} {Oxs_CGEvolve:evolve:Cycle sub count} {Oxs_CGEvolve:evolve:Energy calc count} Oxs_UniformExchange::Energy {Oxs_UniformExchange::Max Spin Ang} {Oxs_UniformExchange::Stage Max Spin Ang} {Oxs_UniformExchange::Run Max Spin Ang} Oxs_CubicAnisotropy::Energy Oxs_UniaxialAnisotropy::Energy Oxs_Demag::Energy    Oxs_UZeeman::Energy  Oxs_UZeeman::B       Oxs_UZeeman::Bx      Oxs_UZeeman::By      Oxs_UZeeman::Bz      Oxs_MinDriver::Iteration {Oxs_MinDriver::Stage iteration} Oxs_MinDriver::Stage Oxs_MinDriver::mx    Oxs_MinDriver::my    Oxs_MinDriver::mz   
# Units:                 A/m                               J                                J                               {}                                   {}                                      {}                                     {}                                  {}                                     {}                                 J                              deg                                    deg                                      deg                                J                            J                        J                     J                 mT                   mT                   mT                   mT                        {}                           {}                         {}                 {}                   {}                   {}           
                 229935.82332768771                1.0132639306785269e-16             1.0132639306785269e-16              0                                    0                                       1                                      1                                   0                                      1                                 0                               0                                      0                                        0                                 1.5817765522428126e-17           1.0895215270372861e-16       1.1059588419665385e-17 -3.4503113577969423e-17  100.31948963187563   100                  8                    0                      0                            0                          0                    0.99503719020998771  0.099503719020998777  0                  
                 229058.71434220526                1.0131015900040741e-16            -1.6234067445281183e-20              1                                    0                                       1                                      1                                   0                                      2                                 1.6997785701938873e-23             0.05284669112874979                    0.05284669112874979                      0.05284669112874979               1.5803167510869907e-17           1.0895214658432396e-16       1.1057908863461377e-17 -3.4503080956033529e-17  100.31948963187563   100                  8                    0                      1                            1                          0                    0.9950327354859968   0.099547549169782271  5.4868407757385064e-05
                 250974.33759811032                9.8924473171496765e-17            -2.3856858289106469e-18              2                                    0                                       1                                      1                                   0                                      3                                 6.8777768309805419e-19             10.647200374042047                     10.647200374042047                       10.647200374042047                1.2939073246450934e-17           1.0870481936453284e-16       1.0989952537368999e-17 -3.4397149659954065e-17  100.31948963187563   100                  8                    0                      2                            2                          0                    0.99127439070577472  0.10803438214949779  0.011048893958460372
                 618372.13531946437                9.7697543768465793e-17            -1.2269294030309721e-18              3                                    0                                       2                                      2                                   0                                      4                                 6.6541456288349614e-19             10.397581557486077                     10.647200374042047                       10.647200374042047                1.1488580312374198e-17           1.0831705429270693e-16       1.1470370309667465e-17 -3.4243875709166295e-17  100.31948963187563   100                  8                    0                      3                            3                          0                    0.98646026780598373  0.11251544209319037  0.019830603655749093
                 448616.77924888401                9.6889415124664997e-17            -8.0812864380079527e-19              4                                    0                                       3                                      3                                   0                                      5                                 7.1075248177842742e-19             13.124395081774992                     13.124395081774992                       13.124395081774992                1.0708829276016698e-17           1.0808920713692688e-16       1.1550573185609133e-17 -3.4169946955666136e-17  100.31948963187563   100                  8                    0                      4                            4                          0                    0.98418348303392778  0.11411160584992491  0.02303631803924747
                 448431.32760106528                9.7572814063778324e-17             6.8339893911332667e-19              4                                    0                                       4                                      4                                   0                                      6                                 7.1075248177842742e-19             13.124395081774992                     13.124395081774992                       13.124395081774992                1.0708829276016698e-17           1.0808920713692688e-16       1.1550573185609133e-17 -3.3486548016552816e-17  98.313099839238106   98                   7.8400000000000007   0                      5                            0                          1                    0.98418348303392778  0.11411160584992491  0.02303631803924747
                 630378.61763588642                9.7133787136734899e-17            -4.3902692704342527e-19              5                                    0                                       4                                      4                                   0                                      7                                 8.7924781692732542e-19             13.752719129401109                     13.752719129401109                       13.752719129401109                1.0112016827722681e-17           1.0777438774251869e-16       1.1755487769258222e-17 -3.3387353019692025e-17  98.313099839238106   98                   7.8400000000000007   0                      6                            1                          1                    0.9811127053761356   0.11571602695321385  0.026822916387598237
                 533262.35270630766                9.7129176661975299e-17            -4.6104747595997699e-21              5                                    1                                       4                                      4                                   0                                      8                                 8.2254538116998857e-19             13.104925310496709                     13.752719129401109                       13.752719129401109                1.0165598148054852e-17           1.0780590800259248e-16       1.1732784698250795e-17 -3.3397659568092818e-17  98.313099839238106   98                   7.8400000000000007   0                      7                            2                          1                    0.98142999037561995  0.11557150738234143  0.026474361475388595
                 443460.53315341694                9.6140364289280455e-17            -9.8881237269484406e-19              6                                    1                                       4                                      5                                   1                                      9                                 1.1215901377902289e-18             13.314450154888874                     13.752719129401109                       13.752719129401109                8.9153912293849502e-18           1.0697223163939546e-16       1.2270109463898879e-17 -3.3138958181189056e-17  98.313099839238106   98                   7.8400000000000007   0                      8                            3                          1                    0.97348833271019886  0.11891889715191263  0.034529089752356232
                 671744.9762734524                 9.5912235822915716e-17            -2.2812846636473854e-19              7                                    1                                       5                                      6                                   0                                      10                                1.3808535751101513e-18             18.599260498501344                     18.599260498501344                       18.599260498501344                8.4535184015031601e-18           1.0661355074338958e-16       1.2493877733051027e-17 -3.3029564630138197e-17  98.313099839238106   98                   7.8400000000000007   0                      9                            4                          1                    0.97014095434494174  0.12019932711702648  0.037535456516412824
                 671501.20159467508                9.6586308570469563e-17             6.7407274755384629e-19              7                                    1                                       6                                      7                                   0                                      11                                1.3808535751101513e-18             18.599260498501344                     18.599260498501344                       18.599260498501344                8.4535184015031601e-18           1.0661355074338958e-16       1.2493877733051027e-17 -3.2355491882584363e-17  96.3067100466006     96                   7.6799999999999997   0                      10                           0                          2                    0.97014095434494174  0.12019932711702648  0.037535456516412824
                 476697.24777650059                9.6294280322153563e-17            -2.9202824831599935e-19              8                                    1                                       6                                      7                                   0                                      12                                1.2912316872960224e-18             14.562958571701563                     18.599260498501344                       18.599260498501344                8.2864510677188051e-18           1.0639175170544208e-16       1.2616251033064979e-17 -3.2291405171368325e-17  96.3067100466006     96                   7.6799999999999997   0                      11                           1                          2                    0.96814249522427542  0.12092243863623299  0.039298796245397526
                 179514.831618278                  9.6248134268516081e-17            -4.6146053637482492e-20              8                                    2                                       6                                      7                                   0                                      13                                1.2002640603321964e-18             14.051202332765151                     18.599260498501344                       18.599260498501344                8.3288338722773923e-18           1.0645370855729568e-16       1.2575863595246321e-17 -3.23105358166355e-17  96.3067100466006     96                   7.6799999999999997   0                      12                           2                          2                    0.96873687767084926  0.12073384827449879  0.03882435283521786
                 164932.50013790303                9.6052513648515578e-17            -1.9562062000050319e-19              9                                    2                                       6                                      8                                   1                                      14                                1.2610851734127575e-18             14.704764824742915                     18.599260498501344                       18.599260498501344                8.1066747295687211e-18           1.0620121408610536e-16       1.271871063462724e-17 -3.2235170975198499e-17  96.3067100466006     96                   7.6799999999999997   0                      13                           3                          2                    0.96638899278251789  0.12155586753141821  0.04075385895326375
                 333160.17189953662                9.5776585598091756e-17            -2.7592805042382152e-19              10                                   2                                       6                                      8                                   1                                      15                                1.513549602085483e-18             16.398667716595604                     18.599260498501344                       18.599260498501344                7.6460072400798992e-18           1.0558877321607652e-16       1.3074706290358077e-17 -3.204645075050821e-17  96.3067100466006     96                   7.6799999999999997   0                      14                           4                          2                    0.96053355538092122  0.12331585271646364  0.045043332160143314
                 332958.27814024384                9.6444219988727362e-17             6.676343906356062e-19              10                                   2                                       7                                      9                                   0                                      16                                1.513549602085483e-18             16.398667716595604                     16.398667716595604                       18.599260498501344                7.6460072400798992e-18           1.0558877321607652e-16       1.3074706290358077e-17 -3.1378816359872622e-17  94.300320253963079   94                   7.5199999999999996   0                      15                           0                          3                    0.96053355538092122  0.12331585271646364  0.045043332160143314
                 137009.59394210429                9.6263933240046887e-17            -1.8028674868047494e-19              11                                   3                                       7                                      9                                   0                                      18                                1.4952956142480956e-18             16.775459196388013                     16.775459196388013                       18.599260498501344                7.5171004030709954e-18           1.0545721012539541e-16       1.3133306959307021e-17 -3.1338979861974622e-17  94.300320253963079   94                   7.5199999999999996   0                      16                           1                          3                    0.95926748716469112  0.12374226752580526  0.045986462311890401
                 133418.56312730908                9.6146260913413786e-17            -1.176723266331013e-19              12                                   3                                       7                                      10                                  1                                      19                                1.5709841320637743e-18             17.422129171668733                     17.422129171668733                       18.599260498501344                7.3594699635835359e-18           1.0524390128820165e-16       1.3244098989857208e-17 -3.1272193460292386e-17  94.300320253963079   94                   7.5199999999999996   0                      17                           2                          3                    0.9571521322841291   0.12436684761286135  0.04747009289053896
                 507842.71913917892                9.6112840819599133e-17            -3.3420093814652616e-20              13                                   3                                       7                                      10                                  1                                      20                                1.976753809675172e-18             19.079105127082574                     19.079105127082574                       19.079105127082574                6.988688156415362e-18           1.0467585848850946e-16       1.3556980270134005e-17 -3.1085439905134871e-17  94.300320253963079   94                   7.5199999999999996   0                      18                           3                          3                    0.95125897023591655  0.12583878787815478  0.051169320605749642
                 336791.34814725735                9.6079244482455638e-17            -3.3596337143495379e-20              13                                   4                                       7                                      10                                  1                                      21                                1.7723277617249561e-18             18.395498451616593                     19.079105127082574                       19.079105127082574                7.1356278479914827e-18           1.0491368605000912e-16       1.3422819245132815e-17 -3.1165216422402742e-17  94.300320253963079   94                   7.5199999999999996   0                      19                           4                          3                    0.95377278923974218  0.12525494400452492  0.049661241775808475
                 336647.6913737455                 9.6742334193570577e-17             6.6308971111493897e-19              13                                   4                                       8                                      11                                  0                                      22                                1.7723277617249561e-18             18.395498451616593                     18.395498451616593                       19.079105127082574                7.1356278479914827e-18           1.0491368605000912e-16       1.3422819245132815e-17 -3.0502126711287791e-17  92.293930461325573   92                   7.3600000000000003   0                      20                           0                          4                    0.95377278923974218  0.12525494400452492  0.049661241775808475
                 130470.93931883408                9.6608578312032551e-17            -1.3375588153802582e-19              14                                   5                                       8                                      11                                  0                                      24                                1.6807981017478457e-18             18.006206454400342                     18.395498451616593                       19.079105127082574                7.1140098070285979e-18           1.0483452085744296e-16       1.3457670143390536e-17 -3.04784205975774e-17  92.293930461325573   92                   7.3600000000000003   0                      21                           1                          4                    0.95300960240730381  0.12543158358783943  0.050217505961263995
                 100996.27687950726                9.654721527604545e-17            -6.1363035987100981e-20              15                                   5                                       8                                      12                                  1                                      25                                1.6956873105533939e-18             17.875586842267669                     18.395498451616593                       19.079105127082574                7.0590959858353415e-18           1.0471080484736289e-16       1.3521085697215064e-17 -3.0439458564921245e-17  92.293930461325573   92                   7.3600000000000003   0                      22                           2                          4                    0.95175740969209377  0.12569517149023635  0.051065329905253996
                 190331.7596991926                 9.6538538954597168e-17            -8.6763214482818123e-21              16                                   5                                       8                                      12                                  1                                      26                                1.7656122511847403e-18             17.757566952755653                     18.395498451616593                       19.079105127082574                7.0003134279087891e-18           1.0456662615122359e-16       1.359885055492369e-17 -3.0392863430643648e-17  92.293930461325573   92                   7.3600000000000003   0                      23                           3                          4                    0.95026211941902516  0.12598263526538828  0.052027722935973068
                 142215.2026993754                 9.6534040840974437e-17            -4.4981136227312149e-21              16                                   6                                       8                                      12                                  1                                      27                                1.7332654555263248e-18             17.782564025025451                     18.395498451616593                       19.079105127082574                7.0214452491311268e-18           1.046200372852319e-16       1.3569565607946778e-17 -3.0410272756861681e-17  92.293930461325573   92                   7.3600000000000003   0                      24                           4                          4                    0.95082053639771769  0.12587857879910047  0.051674307144466844
                 142298.53891281888                9.7195133726993175e-17             6.6109288601873796e-19              16                                   6                                       9                                      13                                  0                                      28                                1.7332654555263248e-18             17.782564025025451                     17.782564025025451                       19.079105127082574                7.0214452491311268e-18           1.046200372852319e-16       1.3569565607946778e-17 -2.974917987084295e-17  90.287540668688052   90                   7.1999999999999993   0                      25                           0                          5                    0.95082053639771769  0.12587857879910047  0.051674307144466844
                 115339.70552723725                9.7136137674715451e-17            -5.8996052277724234e-20              17                                   7                                       9                                      13                                  0                                      30                                1.7586558405958052e-18             18.444245482827387                     18.444245482827387                       19.079105127082574                6.9556634377523549e-18           1.0453308865803328e-16       1.3610901511491761e-17 -2.9722171773157758e-17  90.287540668688052   90                   7.1999999999999993   0                      26                           1                          5                    0.94993456891783634  0.12604874009267897  0.052268244540388677
                 99288.256340341672                9.7075680481530008e-17            -6.0457193185442831e-20              18                                   7                                       9                                      14                                  1                                      31                                1.82431931687933e-18             18.974431114722389                     18.974431114722389                       19.079105127082574                6.8580305063525849e-18           1.0436590871939408e-16       1.3696926297989942e-17 -2.9669504359085933e-17  90.287540668688052   90                   7.1999999999999993   0                      27                           2                          5                    0.94821110870707692  0.12632769441005112  0.053389504392280587
                 200476.5599858553                 9.7066961098535376e-17            -8.7193829946324369e-21              19                                   7                                       9                                      14                                  1                                      32                                1.9548878572963545e-18             19.611570738988473                     19.611570738988473                       19.611570738988473                6.7464909867586061e-18           1.0416340031961977e-16       1.3805881758820675e-17 -2.9603699823960034e-17  90.287540668688052   90                   7.1999999999999993   0                      28                           3                          5                    0.94606098670962591  0.12663585086806403  0.054709200700823156
                 159669.56184973204                9.7062068860323433e-17            -4.892238211942291e-21              19                                   8                                       9                                      14                                  1                                      33                                1.8993716937371595e-18             19.3726943855429                       19.611570738988473                       19.611570738988473                6.7875545016325321e-18           1.0423950418385253e-16       1.3764327885156064e-17 -2.9628689404054852e-17  90.287540668688052   90                   7.1999999999999993   0                      29                           4                          5                    0.94687710472373798  0.12652383793924529  0.054217989572446043
                 159586.79363326868                9.7720484180413529e-17             6.5841532009009591e-19              19                                   8                                       10                                     15                                  0                                      34                                1.8993716937371595e-18             19.3726943855429                       19.3726943855429                         19.611570738988473                6.7875545016325321e-18           1.0423950418385253e-16       1.3764327885156064e-17 -2.8970274083964744e-17  88.281150876050546   88                   7.0399999999999991   0                      30                           0                          6                    0.94687710472373798  0.12652383793924529  0.054217989572446043
                 87709.476341938847                9.766183418833375e-17            -5.8649992079778803e-20              20                                   9                                       10                                     15                                  0                                      36                                1.8653850941082977e-18             18.967471627429674                     19.3726943855429                         19.611570738988473                6.7781595826056101e-18           1.0417158107160506e-16       1.37972798214971e-17 -2.8950571381482309e-17  88.281150876050546   88                   7.0399999999999991   0                      31                           1                          6                    0.94622251220809517  0.12657054865835182  0.054672846729143666
                 82370.420988629019                9.7628098500688639e-17            -3.3735687645111377e-20              21                                   9                                       10                                     16                                  1                                      37                                1.8880694478284717e-18             18.878905574099761                     19.3726943855429                         19.611570738988473                6.7422376686620919e-18           1.04056094829013e-16       1.3857809070358012e-17 -2.8916112515172939e-17  88.281150876050546   88                   7.0399999999999991   0                      32                           2                          6                    0.94507870185827103  0.12663932533336908  0.055431674924667947
                 100507.81666970027                9.762645395031511e-17            -1.6445503735288259e-21              22                                   10                                      10                                     16                                  1                                      39                                1.9009436765040672e-18             18.854931844255887                     19.3726943855429                         19.611570738988473                6.7327525733790473e-18           1.0402422794408821e-16       1.3874974281473146e-17 -2.8906444525129373e-17  88.281150876050546   88                   7.0399999999999991   0                      33                           3                          6                    0.94475794727414653  0.12665662379690645  0.055638700697802676