# ODT 1.0
# Table Start
# Title: mmArchive Data Table, Wed Aug 17 23:55:47 EDT 2011
# Columns: {Oxs_CGEvolve:evolve:Max mxHxm} {Oxs_CGEvolve:evolve:Total energy} {Oxs_CGEvolve:evolve:Delta E} {Oxs_CGEvolve:evolve:Bracket count} {Oxs_CGEvolve:evolve:Line min count} {Oxs_CGEvolve:evolve:Conjugate cycle count} {Oxs_CGEvolve:evolve:Cycle count} {Oxs_CGEvolve:evolve:Cycle sub count} {Oxs_CGEvolve:evolve:Energy calc count} Oxs_UniaxialAnisotropy::Energy Oxs_UniformExchange::Energy {Oxs_UniformExchange::Max Spin Ang} {Oxs_UniformExchange::Stage Max Spin Ang} {Oxs_UniformExchange::Run Max Spin Ang} Oxs_MinDriver::Iteration {Oxs_MinDriver::Stage iteration} Oxs_MinDriver::Stage Oxs_MinDriver::mx    Oxs_MinDriver::my    Oxs_MinDriver::mz   
# Units:                 A/m                               J                                J                               {}                                   {}                                      {}                                     {}                                  {}                                     {}                                  J                             J                              deg                                    deg                                      deg                              {}                           {}                         {}                 {}                   {}                   {}           
                 11702807.742332069                4.857664132082366e-17             4.857664132082366e-17              0                                    0                                       1                                      1                                   1                                      1                                   7.3813559573557477e-18          4.119528536346791e-17             172.88504243519327                     172.88504243519327                       172.88504243519327               0                            0                          0                    0.00071663537540785126  0.042933912286761668  0.073748222248223388
                 11703939.653692713                4.8561290987827011e-17            -1.5350332996649749e-20              1                                    0                                       1                                      1                                   1                                      2                                   7.3813551761978736e-18          4.1179935811629136e-17             172.89587745173691                     172.89587745173691                       172.89587745173691               1                            1                          0                    0.00070753524569886568  0.042959480476364248  0.073748698651360661
                 11707268.016684653                4.8515230862491678e-17            -4.6060125335332623e-20              2                                    0                                       1                                      1                                   1                                      3                                   7.381343458874392e-18          4.1133887403617281e-17             172.92837018478147                     172.92837018478147                       172.92837018478147               2                            2                          0                    0.00068023833615694852  0.043036142804417143  0.073750133316963812
# Table End
