# ODT 1.0
# Table Start
# Title: mmArchive Data Table, Tue Jul 07 18:21:11 EDT 2015
# Columns: {Oxs_CGEvolve:evolve:Max mxHxm} {Oxs_CGEvolve:evolve:Total energy} {Oxs_CGEvolve:evolve:Delta E} {Oxs_CGEvolve:evolve:Bracket count} {Oxs_CGEvolve:evolve:Line min count} {Oxs_CGEvolve:evolve:Conjugate cycle count} {Oxs_CGEvolve:evolve:Cycle count} {Oxs_CGEvolve:evolve:Cycle sub count} {Oxs_CGEvolve:evolve:Energy calc count} Oxs_UniaxialAnisotropy::Energy Oxs_UniformExchange::Energy {Oxs_UniformExchange::Max Spin Ang} {Oxs_UniformExchange::Stage Max Spin Ang} {Oxs_UniformExchange::Run Max Spin Ang} Oxs_MinDriver::Iteration {Oxs_MinDriver::Stage iteration} Oxs_MinDriver::Stage Oxs_MinDriver::mx    Oxs_MinDriver::my    Oxs_MinDriver::mz   
# Units:                 A/m                               J                                J                               {}                                   {}                                      {}                                     {}                                  {}                                     {}                                  J                             J                              deg                                    deg                                      deg                              {}                           {}                         {}                 {}                   {}                   {}           
                 10240100.415780712                4.6973104492236758e-17             4.6973104492236758e-17              0                                    0                                       1                                      1                                   0                                      1                                   7.3813559573557493e-18          3.9591748534881008e-17             174.35460569968862                     174.35460569968862                       174.35460569968862               0                            0                          0                   -0.025156971411369869 -0.011483340413088241  0.01260100285231701
                 10249383.189511599                4.6954330631396639e-17            -1.8773860840119019e-20              1                                    0                                       1                                      1                                   0                                      2                                   7.3813548663002549e-18          3.957297576509638e-17             174.33056974398855                     174.35460569968862                       174.35460569968862               1                            1                          0                   -0.025156749478693608 -0.011509251545451743  0.01260577096876985
                 11907752.6450224                  4.3186432966482025e-17            -3.7678976649146142e-18              2                                    0                                       1                                      1                                   0                                      3                                   7.3373175988714611e-18          3.5849115367610567e-17             177.39623770357548                     177.39623770357548                       177.39623770357548               2                            2                          0                   -0.025133072973062196 -0.016533497764796359  0.013419544400719087
                 13254958.714047218                3.9601795710475941e-17            -3.5846372560060843e-18              3                                    0                                       2                                      2                                   0                                      4                                   7.2158770145683341e-18          3.2385918695907607e-17             175.30416777146556                     177.39623770357548                       177.39623770357548               3                            3                          0                   -0.025024211150342982 -0.021405363429302861  0.014237372546986428
                 13967000.20467234                 3.6461805516345658e-17            -3.139990194130283e-18              4                                    0                                       3                                      3                                   0                                      5                                   7.0473046074629446e-18          2.9414500908882712e-17             167.63480853419779                     177.39623770357548                       177.39623770357548               4                            4                          0                   -0.024777559829530858 -0.02571082060910047  0.015120186971958834
# Table End
