# ODT 1.0
# Table Start
# Title: mmArchive Data Table, Wed May 29 22:06:32 EDT 2019
# Columns: {Oxs_CGEvolve:evolve:Max mxHxm} {Oxs_CGEvolve:evolve:Total energy} {Oxs_CGEvolve:evolve:Delta E} {Oxs_CGEvolve:evolve:Bracket count} {Oxs_CGEvolve:evolve:Line min count} {Oxs_CGEvolve:evolve:Conjugate cycle count} {Oxs_CGEvolve:evolve:Cycle count} {Oxs_CGEvolve:evolve:Cycle sub count} {Oxs_CGEvolve:evolve:Energy calc count} Oxs_UniformExchange::Energy {Oxs_UniformExchange::Max Spin Ang} {Oxs_UniformExchange::Stage Max Spin Ang} {Oxs_UniformExchange::Run Max Spin Ang} Oxs_CubicAnisotropy::Energy Oxs_UniaxialAnisotropy::Energy Oxs_Demag::Energy    Oxs_UZeeman::Energy  Oxs_UZeeman::B       Oxs_UZeeman::Bx      Oxs_UZeeman::By      Oxs_UZeeman::Bz      Oxs_MinDriver::Iteration {Oxs_MinDriver::Stage iteration} Oxs_MinDriver::Stage Oxs_MinDriver::mx    Oxs_MinDriver::my    Oxs_MinDriver::mz   
# Units:                 A/m                               J                                J                               {}                                   {}                                      {}                                     {}                                  {}                                     {}                                 J                              deg                                    deg                                      deg                                J                            J                        J                     J                 mT                   mT                   mT                   mT                        {}                           {}                         {}                 {}                   {}                   {}           
                 229935.82332753812                9.7941393744910741e-17             9.7941393744910741e-17              0                                    0                                       1                                      1                                   0                                      1                                 0                               0                                      0                                        0                                 1.5817765522428126e-17           1.0556715338064692e-16       1.1059588419805115e-17 -3.4503113577969429e-17  100.31948963187563   100                  8                    0                      0                            0                          0                    0.99503719020998771  0.099503719020998777  0                  
                 228311.21553735761                9.7925161308463743e-17            -1.6232436446997624e-20              1                                    0                                       1                                      1                                   0                                      2                                 1.6997785701951133e-23             0.052846691128789126                    0.052846691128789126                      0.052846691128789126               1.5803167510869892e-17           1.0556714889224057e-16       1.1057908863601094e-17 -3.4503080956033529e-17  100.31948963187563   100                  8                    0                      1                            1                          0                    0.99503273548599658  0.099547549169782548  5.4868407757420755e-05
                 241447.15635330247                9.5605183818755434e-17            -2.319977489708309e-18              2                                    0                                       1                                      1                                   0                                      3                                 6.8777768309853837e-19             10.647200374049895                     10.647200374049895                       10.647200374049895                1.2939073246449156e-17           1.0538553001165616e-16       1.098995253750537e-17 -3.43971496599538e-17  100.31948963187563   100                  8                    0                      2                            2                          0                    0.99127439070576218  0.10803438214955501  0.011048893958467594
                 648973.26261837012                9.4556665849047133e-17            -1.0485179697083012e-18              3                                    0                                       2                                      2                                   0                                      4                                 7.0930146218288526e-19             10.983701714971005                     10.983701714971005                       10.983701714971005                1.15321182891354e-17           1.0512875641843075e-16       1.1432757821685122e-17 -3.4246268142387014e-17  100.31948963187563   100                  8                    0                      3                            3                          0                    0.98651340845222912  0.11272052748195073  0.018551702654908905
                 559149.61127206834                9.4540513155936423e-17            -1.6152693110709868e-20              3                                    1                                       2                                      2                                   0                                      5                                 5.9726144581880686e-19             9.2446478565946517                     10.983701714971005                       10.983701714971005                1.1675752875286352e-17           1.0516979002015772e-16       1.1367019301973319e-17 -3.4269310487299769e-17  100.31948963187563   100                  8                    0                      4                            4                          0                    0.98722221433099755  0.1122333990964543   0.017738838345633296
                 559073.47416150756                9.5225899365682414e-17             6.8538620974599071e-19              3                                    1                                       3                                      3                                   0                                      6                                 5.9726144581880686e-19             9.2446478565946517                     9.2446478565946517                       10.983701714971005                1.1675752875286352e-17           1.0516979002015772e-16       1.1367019301973319e-17 -3.3583924277553779e-17  98.313099839238106   98                   7.8400000000000007   0                      5                            0                          1                    0.98722221433099755  0.1122333990964543   0.017738838345633296
                 510163.71431217302                9.4532152173647947e-17            -6.9374719203446685e-19              4                                    1                                       3                                      3                                   0                                      7                                 7.438955170258119e-19             14.322497084730735                     14.322497084730735                       14.322497084730735                1.0863534865169599e-17           1.0501440032963316e-16       1.1420115874425494e-17 -3.350979441260611e-17  98.313099839238106   98                   7.8400000000000007   0                      6                            1                          1                    0.98487734413263961  0.11405782332943726  0.020408535249432123
                 439179.46374881052                9.4528491181376822e-17            -3.6609922711244951e-21              4                                    2                                       3                                      3                                   0                                      8                                 6.8904640432277244e-19             13.059831771039836                     14.322497084730735                       14.322497084730735                1.0916535262105498e-17           1.0502653997241639e-16       1.1412300820953907e-17 -3.351593127842174e-17  98.313099839238106   98                   7.8400000000000007   0                      7                            2                          1                    0.98506887392997411  0.11393917614441806  0.020229135209509339
                 281599.97292831098                9.3844731733059516e-17            -6.8375944831730624e-19              5                                    2                                       3                                      4                                   1                                      9                                 1.0310778728284958e-18             14.279986072551969                     14.322497084730735                       14.322497084730735                9.8462012694482276e-18           1.0469318211390773e-16       1.1636516378966159e-17 -3.3362245902091094e-17  98.313099839238106   98                   7.8400000000000007   0                      8                            3                          1                    0.98028526741167898  0.11674958735337615  0.024823515380773521
                 573811.55735262344                9.3665543579517633e-17            -1.7918815354188311e-19              6                                    2                                       3                                      4                                   1                                      10                                1.6513293204422199e-18             20.645966418900016                     20.645966418900016                       20.645966418900016                8.9747880779719015e-18           1.043352713929114e-16       1.1900883430528512e-17 -3.3196728642336392e-17  98.313099839238106   98                   7.8400000000000007   0                      9                            4                          1                    0.97519049185887086  0.11906249287720813  0.028761228990286249
                 573602.49920257181                9.434302783752451e-17             6.774842580068766e-19              6                                    2                                       4                                      5                                   0                                      11                                1.6513293204422199e-18             20.645966418900016                     20.645966418900016                       20.645966418900016                8.9747880779719015e-18           1.043352713929114e-16       1.1900883430528512e-17 -3.2519244384329522e-17  96.3067100466006     96                   7.6799999999999997   0                      10                           0                          2                    0.97519049185887086  0.11906249287720813  0.028761228990286249
                 625421.13096172153                9.3945433830077442e-17            -3.9759400744706722e-19              7                                    2                                       4                                      5                                   0                                      12                                1.3778597020479769e-18             15.495596913720359                     20.645966418900016                       20.645966418900016                8.8003628325414785e-18           1.0417302622149549e-16       1.2053155182708813e-17 -3.2458970108716325e-17  96.3067100466006     96                   7.6799999999999997   0                      11                           1                          2                    0.97328693206413319  0.12004241772286182  0.030741202861551683
                 266823.96699293872                9.3757038689454553e-17            -1.8839514062288945e-19              7                                    3                                       4                                      5                                   0                                      13                                1.173435343542536e-18             14.638844993471981                     20.645966418900016                       20.645966418900016                8.8537848203315388e-18           1.042373114388542e-16       1.1978255190683832e-17 -3.2485748103957561e-17  96.3067100466006     96                   7.6799999999999997   0                      12                           2                          2                    0.97412475391641395  0.11970545308786926  0.03002667191038302
                 237009.96415310551                9.3462735575710412e-17            -2.9430311374414074e-19              8                                    3                                       4                                      6                                   1                                      14                                1.095483767200731e-18             12.746411042105898                     20.645966418900016                       20.645966418900016                8.6111260346329859e-18           1.0404953264738951e-16       1.212287043293875e-17 -3.2416277306451556e-17  96.3067100466006     96                   7.6799999999999997   0                      13                           3                          2                    0.97193917703289867  0.12072959215915706  0.03205881765699245
                 325240.12135368894                9.341860091285939e-17            -4.4134662851022137e-20              9                                    3                                       4                                      6                                   1                                      15                                1.2860013076619016e-18             11.490936335303655                     20.645966418900016                       20.645966418900016                8.328571055124943e-18           1.0378091926183588e-16       1.2338949481199053e-17 -3.2315840192962401e-17  96.3067100466006     96                   7.6799999999999997   0                      14                           4                          2                    0.96880096753234568  0.12194049826422147  0.03457258678806744
                 325191.04574273457                9.4091847583546106e-17             6.732466706867154e-19              9                                    3                                       5                                      7                                   0                                      16                                1.2860013076619016e-18             11.490936335303655                     11.490936335303655                       20.645966418900016                8.328571055124943e-18           1.0378091926183588e-16       1.2338949481199053e-17 -3.1642593522275685e-17  94.300320253963079   94                   7.5199999999999996   0                      15                           0                          3                    0.96880096753234568  0.12194049826422147  0.03457258678806744
                 283911.85061163921                9.3697233602737989e-17            -3.946139808081161e-19              10                                   4                                       5                                      7                                   0                                      18                                1.2951231456408191e-18             13.733711481042386                     13.733711481042386                       20.645966418900016                7.9952760246354192e-18           1.0361573951536729e-16       1.2383063833317654e-17 -3.1591968916223195e-17  94.300320253963079   94                   7.5199999999999996   0                      16                           1                          3                    0.96717020175346247  0.12275531618136021  0.036148786043224315
                 310126.03727301472                9.3402448114065811e-17            -2.947854886721788e-19              11                                   4                                       5                                      8                                   1                                      19                                1.5089988225319595e-18             15.310553927454619                     15.310553927454619                       20.645966418900016                7.5696707438801456e-18           1.0328038147287897e-16       1.2535981047753456e-17 -3.1492583972978719e-17  94.300320253963079   94                   7.5199999999999996   0                      17                           2                          3                    0.96399471024860062  0.12403011441580862  0.038992740229473057
                 312551.96415048168                9.3364502512687736e-17            -3.7945601378074682e-20              12                                   4                                       5                                      8                                   1                                      20                                1.7302786863994268e-18             16.854620161600288                     16.854620161600288                       20.645966418900016                7.3514765305042987e-18           1.0308406316090407e-16       1.2633014551740007e-17 -3.1434330416860058e-17  94.300320253963079   94                   7.5199999999999996   0                      18                           3                          3                    0.96214213398511028  0.12466847024892209  0.040478406215747588
                 256763.41694098435                9.2955141392327811e-17            -4.0936112035992499e-19              13                                   4                                       5                                      9                                   2                                      21                                1.9142361724987481e-18             17.672193254052136                     17.672193254052136                       20.645966418900016                6.8801627684811658e-18           1.0250145335972115e-16       1.2934893234347517e-17 -3.1275604142720772e-17  94.300320253963079   94                   7.5199999999999996   0                      19                           4                          3                    0.95711037007405508  0.12620732929479453  0.044551860152280444
                 256672.655048443                  9.3620579778343151e-17             6.6543838601534003e-19              13                                   4                                       6                                      10                                  0                                      22                                1.9142361724987481e-18             17.672193254052136                     17.672193254052136                       20.645966418900016                6.8801627684811658e-18           1.0250145335972115e-16       1.2934893234347517e-17 -3.0610165756705432e-17  92.293930461325573   92                   7.3600000000000003   0                      20                           0                          4                    0.95711037007405508  0.12620732929479453  0.044551860152280444
                 219596.29230099008                9.3344563930570553e-17            -2.7601584777259804e-19              14                                   4                                       6                                      10                                  0                                      23                                1.7107496897638222e-18             15.623398414521423                     17.672193254052136                       20.645966418900016                6.8428176084403378e-18           1.0229520177523038e-16       1.3066257223540523e-17 -3.0570462366404507e-17  92.293930461325573   92                   7.3600000000000003   0                      21                           1                          4                    0.95583193477819639  0.12650613567371538  0.046025030618897587
                 220634.12165111335                9.3341099005703473e-17            -3.4649248670802525e-21              15                                   5                                       6                                      10                                  0                                      25                                1.712952591321229e-18             15.650598379982348                     17.672193254052136                       20.645966418900016                6.8399549150253218e-18           1.0226820416174562e-16       1.3084907696498163e-17 -3.0564920358886851e-17  92.293930461325573   92                   7.3600000000000003   0                      22                           2                          4                    0.95565411001118883  0.12654002040126253  0.046207304401538495
                 195445.30603088581                9.312168753133739e-17            -2.194114743660823e-19              16                                   5                                       6                                      11                                  1                                      26                                1.7428642677043536e-18             18.307490476520751                     18.307490476520751                       20.645966418900016                6.6821392915604532e-18           1.0178495224805247e-16       1.3378114524675957e-17 -3.0466382800655848e-17  92.293930461325573   92                   7.3600000000000003   0                      23                           3                          4                    0.952498895178431    0.12706085931530037  0.049233827764715764
                 197078.07453912258                9.3116082829493593e-17            -5.604701843797863e-21              17                                   6                                       6                                      11                                  1                                      28                                1.7772883566720809e-18             18.867761762993698                     18.867761762993698                       20.645966418900016                6.6577853251497479e-18           1.0169123100386044e-16       1.3436582551349945e-17 -3.0446804407538629e-17  92.293930461325573   92                   7.3600000000000003   0                      24                           4                          4                    0.95187371232893159  0.12714277353726791  0.049779311023481453
                 198070.26622575917                9.3777969881831386e-17             6.6188705233779307e-19              17                                   6                                       7                                      12                                  0                                      29                                1.7772883566720809e-18             18.867761762993698                     18.867761762993698                       20.645966418900016                6.6577853251497479e-18           1.0169123100386044e-16       1.3436582551349945e-17 -2.978491735520083e-17  90.287540668688052   90                   7.1999999999999993   0                      25                           0                          5                    0.95187371232893159  0.12714277353726791  0.049779311023481453
                 413517.26709002169                9.3766621133712298e-17            -1.1348748119087296e-20              18                                   6                                       7                                      12                                  0                                      30                                2.2188134762522627e-18             20.871854326702529                     20.871854326702529                       20.871854326702529                6.3410025918861176e-18           1.0125616724413954e-16       1.3648343555935612e-17 -2.9697705734501228e-17  90.287540668688052   90                   7.1999999999999993   0                      26                           1                          5                    0.94903704477886175  0.1273897077469579   0.052265651025518937
                 163797.93074661258                9.3608715412257492e-17            -1.5790572145480586e-19              18                                   7                                       7                                      12                                  0                                      31                                1.8565659615108504e-18             19.192959198633169                     20.871854326702529                       20.871854326702529                6.4867362208368993e-18           1.0147497273547897e-16       1.3533701126893837e-17 -2.9743260632463051e-17  90.287540668688052   90                   7.1999999999999993   0                      27                           2                          5                    0.95051673020011118  0.12728628289227778  0.051056953201296586
                 144406.9221142607                 9.3478196984966406e-17            -1.3051842729108674e-19              19                                   7                                       7                                      13                                  1                                      32                                2.0361930705399598e-18             20.570448934819886                     20.871854326702529                       20.871854326702529                6.2917739132171386e-18           1.0106569403540596e-16       1.3748336107552703e-17 -2.966380014174936e-17  90.287540668688052   90                   7.1999999999999993   0                      28                           3                          5                    0.94794044463660654  0.1274079359657655   0.053351082128540221
                 155611.71215616519                9.3474906534766877e-17            -3.2904501995282829e-21              20                                   8                                       7                                      13                                  1                                      34                                2.086498694238487e-18             20.828226691436328                     20.871854326702529                       20.871854326702529                6.258690319973165e-18           1.0098792826585442e-16       1.3790190188256327e-17 -2.964840093355552e-17  90.287540668688052   90                   7.1999999999999993   0                      29                           4                          5                    0.94744188798044759  0.12742251359853565  0.053766264782349582
                 156566.88753921466                9.4133759888845901e-17             6.5885335407902347e-19              20                                   8                                       8                                      14                                  0                                      35                                2.086498694238487e-18             20.828226691436328                     20.828226691436328                       20.871854326702529                6.258690319973165e-18           1.0098792826585442e-16       1.3790190188256327e-17 -2.8989547579476509e-17  88.281150876050546   88                   7.0399999999999991   0                      30                           0                          6                    0.94744188798044759  0.12742251359853565  0.053766264782349582
                 321493.551800268                  9.4113701069199713e-17            -2.0058819646187493e-20              21                                   8                                       8                                      14                                  0                                      36                                2.1048048801151651e-18             21.598527394250553                     21.598527394250553                       21.598527394250553                6.2750955808208317e-18           1.0066763960866489e-16       1.399794592739875e-17 -2.8931784927799926e-17  88.281150876050546   88                   7.0399999999999991   0                      31                           1                          6                    0.94554527450579784  0.12727866426087278  0.055581301195393319
                 119252.88994993166                9.4038950749939087e-17            -7.4750319260626039e-20              21                                   9                                       8                                      14                                  0                                      37                                2.0205252096068794e-18             21.080102233718421                     21.598527394250553                       21.598527394250553                6.2620893137027801e-18           1.0082116758674124e-16       1.3895459264328799e-17 -2.8960290624440614e-17  88.281150876050546   88                   7.0399999999999991   0                      32                           2                          6                    0.94648076965651196  0.12735562788991811  0.054734247421924155
                 101665.0055304425                 9.3964857332746651e-17            -7.4093417192436803e-20              22                                   9                                       8                                      15                                  1                                      38                                2.0527025481743051e-18             20.913228545264467                     21.598527394250553                       21.598527394250553                6.2220908604664495e-18           1.0049665360592642e-16       1.4094152198825173e-17 -2.8900741880645693e-17  88.281150876050546   88                   7.0399999999999991   0                      33                           3                          6                    0.94452684945730381  0.12719059439176528  0.056532814536431011