# ODT 1.0
# Table Start
# Title: mmArchive Data Table, Fri Jan 27 23:55:52 EST 2023
# Columns: {Oxs_CGEvolve:evolve:Max mxHxm} {Oxs_CGEvolve:evolve:Total energy} {Oxs_CGEvolve:evolve:Delta E} {Oxs_CGEvolve:evolve:Bracket count} {Oxs_CGEvolve:evolve:Line min count} {Oxs_CGEvolve:evolve:Conjugate cycle count} {Oxs_CGEvolve:evolve:Cycle count} {Oxs_CGEvolve:evolve:Cycle sub count} {Oxs_CGEvolve:evolve:Energy calc count} Oxs_UniformExchange::Energy {Oxs_UniformExchange::Max Spin Ang} {Oxs_UniformExchange::Stage Max Spin Ang} {Oxs_UniformExchange::Run Max Spin Ang} Oxs_CubicAnisotropy::Energy Oxs_UniaxialAnisotropy::Energy Oxs_Demag::Energy    Oxs_UZeeman::Energy  Oxs_UZeeman::B       Oxs_UZeeman::Bx      Oxs_UZeeman::By      Oxs_UZeeman::Bz      Oxs_MinDriver::Iteration {Oxs_MinDriver::Stage iteration} Oxs_MinDriver::Stage Oxs_MinDriver::mx    Oxs_MinDriver::my    Oxs_MinDriver::mz   
# Units:                 A/m                               J                                J                               {}                                   {}                                      {}                                     {}                                  {}                                     {}                                 J                              deg                                    deg                                      deg                                J                            J                        J                     J                 mT                   mT                   mT                   mT                        {}                           {}                         {}                 {}                   {}                   {}           
                 226471.37554691129                1.0009213036619113e-16             1.0009213036619113e-16              0                                    0                                       1                                      1                                   0                                      1                                 0                               0                                      0                                        0                                 1.6998816195717726e-17           1.0653683932877745e-16       1.1059588419665385e-17 -3.4503113577969423e-17  100.31948963187563   100                  8                    0                      0                            0                          0                    0.99503719020998771  0.099503719020998777  0                  
                 225991.85889994632                1.0007766436334457e-16            -1.4466002846558967e-20              1                                    0                                       1                                      1                                   0                                      2                                 1.8453216269604777e-23             0.054924509175033352                    0.054924509175033352                      0.054924509175033352               1.6986027916363793e-17           1.0653683623400467e-16       1.1057927886222805e-17 -3.4503146126462971e-17  100.31948963187563   100                  8                    0                      1                            1                          0                    0.9950421806539077   0.099453165686243697  1.9851904561154431e-05
                 289904.94113280764                9.8067637936958033e-17            -2.0100264263865397e-18              2                                    0                                       1                                      1                                   0                                      3                                 7.472675996675991e-19             11.06136883964173                      11.06136883964173                        11.06136883964173                 1.4398828850084951e-17           1.064115898875116e-16       1.0929647646141906e-17 -3.4419696046448026e-17  100.31948963187563   100                  8                    0                      2                            2                          0                    0.9934454828624989   0.089088457840874838  0.0039975430687893953
                 640954.39561358304                9.7133326180901891e-17            -9.3431175605614194e-19              3                                    0                                       2                                      2                                   0                                      4                                 6.1728308701340992e-19             8.5751317586345497                     11.06136883964173                        11.06136883964173                 1.3372139367429136e-17           1.0629859091347743e-16       1.117006966789064e-17 -3.432475685490872e-17  100.31948963187563   100                  8                    0                      3                            3                          0                    0.99139267912428364  0.080250251828984265  0.009006610097730499
                 587285.17834139022                9.7129420190865728e-17            -3.9059900361634848e-21              3                                    1                                       2                                      2                                   0                                      5                                 5.7302190323121979e-19             7.4877677236593536                     11.06136883964173                        11.06136883964173                 1.3432130419787892e-17           1.0630934706126748e-16       1.1148120661568209e-17 -3.4333199854989079e-17  100.31948963187563   100                  8                    0                      4                            4                          0                    0.99159511522196131  0.080787751218598408  0.008705553469898453
                 587181.26015610318                9.7816084187965512e-17             6.8666399709978391e-19              3                                    1                                       3                                      3                                   0                                      6                                 5.7302190323121979e-19             7.4877677236593536                     7.4877677236593536                       11.06136883964173                 1.3432130419787892e-17           1.0630934706126748e-16       1.1148120661568209e-17 -3.3646535857889301e-17  98.313099839238106   98                   7.8400000000000007   0                      5                            0                          1                    0.99159511522196131  0.080787751218598408  0.008705553469898453
                 516532.80116923299                9.7172672775318381e-17            -6.4341141264713062e-19              4                                    1                                       3                                      3                                   0                                      7                                 7.2452153214821117e-19             12.439435834596793                     12.439435834596793                       12.439435834596793                1.2646289954620282e-17           1.0620506598254273e-16       1.1182079744428673e-17 -3.3585284438421519e-17  98.313099839238106   98                   7.8400000000000007   0                      6                            1                          1                    0.99009357251254837  0.07684575295089649  0.011178317408016133
                 498880.96924949961                9.7172497642476073e-17            -1.751328423083652e-22              4                                    2                                       3                                      3                                   0                                      8                                 7.1265070607440464e-19             12.141840794679736                     12.439435834596793                       12.439435834596793                1.265875836630974e-17           1.0620701143491241e-16       1.1180592983170772e-17 -3.3586515847991244e-17  98.313099839238106   98                   7.8400000000000007   0                      7                            2                          1                    0.990124965015037    0.076909938376654843  0.011138440548441613
                 281336.80402247579                9.6407137265691358e-17            -7.6536037678471429e-19              5                                    2                                       3                                      4                                   1                                      9                                 1.0835976569364881e-18             13.780387557034171                     13.780387557034171                       13.780387557034171                1.1453135333834316e-17           1.0594347870485008e-16       1.1363431597612565e-17 -3.3436506027542095e-17  98.313099839238106   98                   7.8400000000000007   0                      8                            3                          1                    0.9862990249846223   0.069112369950054764  0.016060384108053914
                 534570.86612557329                9.6168204081461377e-17            -2.3893318422998147e-19              6                                    2                                       3                                      4                                   1                                      10                                1.5888322281844635e-18             17.619909347567134                     17.619909347567134                       17.619909347567134                1.0620896086985859e-17           1.0570790313908306e-16       1.1551915842837538e-17 -3.3301343215629529e-17  98.313099839238106   98                   7.8400000000000007   0                      9                            4                          1                    0.98273663381352883  0.063525531156510648  0.019536165213223537
                 534363.08488161478                9.6847823330759954e-17             6.7961924929857715e-19              6                                    2                                       4                                      5                                   0                                      11                                1.5888322281844635e-18             17.619909347567134                     17.619909347567134                       17.619909347567134                1.0620896086985859e-17           1.0570790313908306e-16       1.1551915842837538e-17 -3.262172396633097e-17  96.3067100466006     96                   7.6799999999999997   0                      10                           0                          2                    0.98273663381352883  0.063525531156510648  0.019536165213223537
                 541847.16714894702                9.6461188797118294e-17            -3.8663453364166051e-19              7                                    2                                       4                                      5                                   0                                      12                                1.3662591642841806e-18             13.091374465259612                     17.619909347567134                       17.619909347567134                1.0407716604714431e-17           1.0556113019991343e-16       1.1680071374006881e-17 -3.2553988545800621e-17  96.3067100466006     96                   7.6799999999999997   0                      11                           1                          2                    0.98093904340968086  0.060356701277604043  0.021905190641233425
                 272813.52971514355                9.6295146418909423e-17            -1.6604237820887011e-19              7                                    3                                       4                                      5                                   0                                      13                                1.1747254139037234e-18             13.735813370083529                     17.619909347567134                       17.619909347567134                1.0472635927745711e-17           1.0561719030924488e-16       1.1613502489246621e-17 -3.2582907721231503e-17  96.3067100466006     96                   7.6799999999999997   0                      12                           2                          2                    0.98172432535531318  0.061486949149716148  0.021068205602556466
                 158339.37017385929                9.5975877613259187e-17            -3.1926880565023623e-19              8                                    3                                       4                                      6                                   1                                      14                                1.1411474246856139e-18             11.981584992181867                     17.619909347567134                       17.619909347567134                1.0141800472941425e-17           1.0544219865290917e-16       1.1751704424264719e-17 -3.2500973361541737e-17  96.3067100466006     96                   7.6799999999999997   0                      13                           3                          2                    0.97950024140417269  0.058274811277523139  0.023488813002070376
                 412666.19937986665                9.5941393223166894e-17            -3.4484390092293293e-20              9                                    3                                       4                                      6                                   1                                      15                                1.350814655655586e-18             11.846062463363724                     17.619909347567134                       17.619909347567134                9.8306273217883886e-18           1.0524690921303074e-16       1.1920128161564421e-17 -3.2407086128872238e-17  96.3067100466006     96                   7.6799999999999997   0                      14                           4                          2                    0.97691435474931765  0.055060894209812652  0.025885256209147747
                 412567.4969739588                 9.6616540850851727e-17             6.7514762768483304e-19              9                                    3                                       5                                      7                                   0                                      16                                1.350814655655586e-18             11.846062463363724                     11.846062463363724                       17.619909347567134                9.8306273217883886e-18           1.0524690921303074e-16       1.1920128161564421e-17 -3.1731938501187399e-17  94.300320253963079   94                   7.5199999999999996   0                      15                           0                          3                    0.97691435474931765  0.055060894209812652  0.025885256209147747
                 209974.42688032545                9.6236075515976887e-17            -3.8046533487483982e-19              10                                   4                                       5                                      7                                   0                                      18                                1.3400283291681891e-18             12.828898119773038                     12.828898119773038                       17.619909347567134                9.4924606404896e-18           1.0513636303275466e-16       1.1953399651183972e-17 -3.1686176137619536e-17  94.300320253963079   94                   7.5199999999999996   0                      16                           1                          3                    0.97560550449512617  0.053731345970876816  0.027006534948702705
                 205573.65668974255                9.6000040732011077e-17            -2.3603478396581039e-19              11                                   4                                       5                                      8                                   1                                      19                                1.5112748363784023e-18             14.549841651780396                     14.549841651780396                       17.619909347567134                9.0940340759620573e-18           1.0493825421311537e-16       1.2059163682008146e-17 -3.1602686075452897e-17  94.300320253963079   94                   7.5199999999999996   0                      17                           2                          3                    0.97319272097182363  0.051616715931164112  0.028827538199125501
                 340248.71907256002                9.598126150452966e-17            -1.8779227481416924e-20              12                                   4                                       5                                      8                                   1                                      20                                1.8698940978517244e-18             16.795446557034953                     16.795446557034953                       17.619909347567134                8.710434375932034e-18           1.0472246447654582e-16       1.2188854378787497e-17 -3.1510385824587409e-17  94.300320253963079   94                   7.5199999999999996   0                      18                           3                          3                    0.97050808558169477  0.049494514325269273  0.030624287575589781
                 237340.72622700236                9.5962485077793562e-17            -1.8776426736098194e-20              12                                   5                                       5                                      8                                   1                                      21                                1.6989131740323104e-18             15.849758444004594                     16.795446557034953                       17.619909347567134                8.8670813180389155e-18           1.0481379453893735e-16       1.2132321269083547e-17 -3.1549625222298577e-17  94.300320253963079   94                   7.5199999999999996   0                      19                           4                          3                    0.97165127822369957  0.050373225529217185  0.029884216911413075
                 237107.29850377364                9.6633753699544598e-17             6.7126862175103683e-19              12                                   5                                       6                                      9                                   0                                      22                                1.6989131740323104e-18             15.849758444004594                     15.849758444004594                       17.619909347567134                8.8670813180389155e-18           1.0481379453893735e-16       1.2132321269083547e-17 -3.0878356600547546e-17  92.293930461325573   92                   7.3600000000000003   0                      20                           0                          4                    0.97165127822369957  0.050373225529217185  0.029884216911413075
                 624567.99797242752                9.6625705043929656e-17            -8.0486556149427612e-21              13                                   5                                       6                                      9                                   0                                      23                                1.8520720818717343e-18             14.525953071699568                     15.849758444004594                       17.619909347567134                8.6884875481441198e-18           1.0452218904707807e-16       1.2332142224993965e-17 -3.0769185858158241e-17  92.293930461325573   92                   7.3600000000000003   0                      21                           1                          4                    0.96836246407985727  0.048364270632778573  0.031990115991734631
                 204487.32387048137                9.6400067880510693e-17            -2.2563716341896317e-19              13                                   6                                       6                                      9                                   0                                      24                                1.5722005214741789e-18             14.794287023158596                     15.849758444004594                       17.619909347567134                8.7667955919101179e-18           1.0467310344963679e-16       1.2215640339220607e-17 -3.0827672021731007e-17  92.293930461325573   92                   7.3600000000000003   0                      22                           2                          4                    0.97013023751425742  0.049367363214022124  0.030953593375215079
                 194536.83257065582                9.6150507208323538e-17            -2.4956067218715407e-19              14                                   6                                       6                                      10                                  1                                      25                                1.6435383753268851e-18             15.424036789386399                     15.849758444004594                       17.619909347567134                8.4599248505251451e-18           1.0435646480611419e-16       1.2403739701476472e-17 -3.0713160525119161e-17  92.293930461325573   92                   7.3600000000000003   0                      23                           3                          4                    0.96665385956408401  0.047593519983497957  0.032938991292632266
                 372412.45714369835                9.6120305605545597e-17            -3.0201602777941813e-20              15                                   6                                       6                                      10                                  1                                      26                                1.7893230655066341e-18             15.933651598818386                     15.933651598818386                       17.619909347567134                8.2876358006915496e-18           1.0415276965438512e-16       1.2529502424888995e-17 -3.0638925339926703e-17  92.293930461325573   92                   7.3600000000000003   0                      24                           4                          4                    0.96439389754153249  0.046522398940002499  0.034088067508166502
                 372503.15942311159                9.6786369199891828e-17             6.6606359434623119e-19              15                                   6                                       7                                      11                                  0                                      27                                1.7893230655066341e-18             15.933651598818386                     15.933651598818386                       17.619909347567134                8.2876358006915496e-18           1.0415276965438512e-16       1.2529502424888995e-17 -2.9972861745580471e-17  90.287540668688052   90                   7.1999999999999993   0                      25                           0                          5                    0.96439389754153249  0.046522398940002499  0.034088067508166502
                 225598.06700950392                9.6523914395342281e-17            -2.6245480454954679e-19              16                                   7                                       7                                      11                                  0                                      29                                1.78334802209743e-18             16.32772595016182                      16.32772595016182                        17.619909347567134                8.0792375245232068e-18           1.0403560835758839e-16       1.2564114968145152e-17 -2.993839447701188e-17  90.287540668688052   90                   7.1999999999999993   0                      26                           1                          5                    0.96328329317740069  0.046488905135467336  0.03443161369959194
                 226698.01709376657                9.6348857653031656e-17            -1.7505674231062519e-19              17                                   7                                       7                                      12                                  1                                      30                                1.9169015362723269e-18             17.590651183568522                     17.590651183568522                       17.619909347567134                7.8279288760663475e-18           1.0382071026045332e-16       1.2656920103837686e-17 -2.9873603123598019e-17  90.287540668688052   90                   7.1999999999999993   0                      27                           2                          5                    0.96118761450975376  0.046525588814617137  0.034954376494295822
                 237440.93028901494                9.6331247589200584e-17            -1.761006383107182e-20              18                                   8                                       7                                      12                                  1                                      32                                2.0271167580764709e-18             18.137316694510965                     18.137316694510965                       18.137316694510965                7.7222330815917568e-18           1.0372341204198943e-16       1.2702245723819564e-17 -2.9843760016276637e-17  90.287540668688052   90                   7.1999999999999993   0                      28                           3                          5                    0.96022311655273584  0.046532755088794814  0.035174586527390528
                 233391.85125606848                9.596320009351357e-17            -3.6804749568701452e-19              19                                   8                                       7                                      13                                  2                                      33                                2.2245478268719335e-18             19.68851000158357                      19.68851000158357                        19.68851000158357                 7.3011223287141642e-18           1.0316248351791459e-16       1.2953362259832417e-17 -2.9678315839819548e-17  90.287540668688052   90                   7.1999999999999993   0                      29                           4                          5                    0.95484975244281367  0.046902254598686584  0.036106670058608674
                 234225.24721622674                9.6622718223287332e-17             6.5951812977376254e-19              19                                   8                                       8                                      14                                  0                                      34                                2.2245478268719335e-18             19.68851000158357                      19.68851000158357                        19.68851000158357                 7.3011223287141642e-18           1.0316248351791459e-16       1.2953362259832417e-17 -2.9018797710045786e-17  88.281150876050546   88                   7.0399999999999991   0                      30                           0                          6                    0.95484975244281367  0.046902254598686584  0.036106670058608674
                 269576.70720079058                9.6447449349900749e-17            -1.7526887338658351e-19              20                                   8                                       8                                      14                                  0                                      35                                2.1303967276338627e-18             19.459081935838054                     19.68851000158357                        19.68851000158357                 7.2917122096532284e-18           1.0293208979691318e-16       1.305454282950436e-17 -2.8961292213803897e-17  88.281150876050546   88                   7.0399999999999991   0                      31                           1                          6                    0.95285965207054246  0.048033176831905604  0.035820589611090581
                 215201.84558632661                9.6426989596439612e-17            -2.0459753461136478e-20              20                                   9                                       8                                      14                                  0                                      36                                2.0964987497592609e-18             19.430438266141635                     19.68851000158357                        19.68851000158357                 7.2914681606273648e-18           1.0299010884641342e-16       1.3025447332108834e-17 -2.8976533492469264e-17  88.281150876050546   88                   7.0399999999999991   0                      32                           2                          6                    0.95338488601815308  0.047761224451529395  0.035890725570166676