# ODT 1.0
# Table Start
# Title: mmArchive Data Table, Thu May 14 02:47:59 EDT 2015
# Columns: {Oxs_CGEvolve::Max mxHxm} {Oxs_CGEvolve::Total energy} {Oxs_CGEvolve::Delta E} {Oxs_CGEvolve::Bracket count} {Oxs_CGEvolve::Line min count} {Oxs_CGEvolve::Conjugate cycle count} {Oxs_CGEvolve::Cycle count} {Oxs_CGEvolve::Cycle sub count} {Oxs_CGEvolve::Energy calc count} Oxs_CubicAnisotropy::Energy Oxs_RandomSiteExchange::Energy {Oxs_RandomSiteExchange::Max Spin Ang} {Oxs_RandomSiteExchange::Stage Max Spin Ang} {Oxs_RandomSiteExchange::Run Max Spin Ang} Oxs_UZeeman::Energy  Oxs_UZeeman::B       Oxs_UZeeman::Bx      Oxs_UZeeman::By      Oxs_UZeeman::Bz      Oxs_Demag::Energy    Oxs_MinDriver::Iteration {Oxs_MinDriver::Stage iteration} Oxs_MinDriver::Stage Oxs_MinDriver::mx    Oxs_MinDriver::my    Oxs_MinDriver::mz   
# Units:              A/m                         J                          J                         {}                             {}                                {}                               {}                            {}                               {}                              J                            J                                 deg                                       deg                                         deg                              J                 mT                   mT                   mT                   mT                     J                       {}                           {}                         {}                 {}                   {}                   {}           
              4457841.3693437222          9.5602772047381007e-16       9.5602772047381007e-16        0                              0                                 1                                1                             0                                1                             -3.6202169568353203e-19           9.0249797593710773e-16                178.59867172298485                        178.59867172298485                          178.59867172298485              0                    0                    0                    0                    0                    5.3891766232385896e-17    0                            0                          0                   -0.0032088240321130413  0.016552589984772582  0.0016735888350166343
              4458706.9916682122          9.5581425605788384e-16      -2.1346441592623321e-19        1                              0                                 1                                1                             0                                2                             -3.6201965684229945e-19           9.0228705953368208e-16                178.58385572543975                        178.59867172298485                          178.59867172298485              0                    0                    0                    0                    0                    5.3889216181044151e-17    1                            1                          0                   -0.0032113090061454091  0.016560810116779248  0.0016743043553893921
              4536426.7492040899          9.1310353336462246e-16      -4.2710722693261456e-17        2                              0                                 1                                1                             0                                3                             -3.6167624368556357e-19           8.6010189269241123e-16                179.78157207276513                        179.78157207276513                          179.78157207276513              0                    0                    0                    0                    0                    5.3363316915896793e-17    2                            2                          0                   -0.0036837686729393176  0.018209627641610774  0.001831571948534013
              4451694.3419956686          8.7135133374086776e-16      -4.1752199623754676e-17        3                              0                                 2                                2                             0                                4                             -3.6139925586646705e-19           8.1891539465385823e-16                176.59844037947141                        179.78157207276513                          179.78157207276513              0                    0                    0                    0                    0                    5.2797338342876061e-17    3                            3                          0                   -0.0041335611900334126  0.019975728108564652  0.002027632668089347
              4311095.3254402848          8.296713400919931e-16      -4.1679993648874677e-17        4                              0                                 3                                3                             0                                5                             -3.6123591041783296e-19           7.7785203644829393e-16                179.15053076654308                        179.78157207276513                          179.78157207276513              0                    0                    0                    0                    0                    5.2180539554116963e-17    4                            4                          0                   -0.0045667643749936239  0.021919559882713293  0.0022840829121428016
              4311091.3446844788          8.296735613952768e-16       2.2213032837490906e-21        4                              0                                 4                                4                             0                                6                             -3.6123591041783296e-19           7.7785203644829393e-16                179.15053076654308                        179.15053076654308                          179.78157207276513              2.221303283749094e-21  2.0024984394500787   2                    0.10000000000000001  0                    5.2180539554116963e-17    5                            0                          1                   -0.0045667643749936239  0.021919559882713293  0.0022840829121428016
              4353832.2539615743          7.8794292325354765e-16      -4.1730638141729187e-17        5                              0                                 4                                4                             0                                7                             -3.6123914670158384e-19           7.3679226665010579e-16                179.57928569442288                        179.57928569442288                          179.78157207276513              2.3916430179484863e-21  2.0024984394500787   2                    0.10000000000000001  0                    5.1509504107125529e-17    6                            1                          1                   -0.0049412778448526548  0.024086712586162906  0.0026203234006479475
              4227545.2505622301          7.4823845797436434e-16      -3.9704465279183292e-17        6                              0                                 5                                5                             0                                8                             -3.6141189136012511e-19           6.9777876616239265e-16                177.86875436946909                        179.57928569442288                          179.78157207276513              2.5351221008031925e-21  2.0024984394500787   2                    0.10000000000000001  0                    5.0818568581231034e-17    7                            2                          1                   -0.0052810782150170951  0.026398998650242145  0.0030299531272878974
              4343100.84931478            7.0923298993326843e-16      -3.9005468041095972e-17        7                              0                                 6                                6                             0                                9                             -3.6171607661134829e-19           6.5950446186504098e-16                178.82668273587748                        179.57928569442288                          179.78157207276513              2.660413406117113e-21  2.0024984394500787   2                    0.10000000000000001  0                    5.0087583731432607e-17    8                            3                          1                   -0.0056043381480417294  0.028948844019674826  0.0035275450497658733
              4678388.9756182516          6.7323709030973647e-16      -3.5995899623531933e-17        8                              0                                 7                                7                             0                                10                            -3.6206113094052831e-19           6.2423269115054505e-16                177.89012856784638                        179.57928569442288                          179.78157207276513              2.765946218582244e-21  2.0024984394500787   2                    0.10000000000000001  0                    4.9363694343913343e-17    9                            4                          1                   -0.0059014083479265933  0.031592347627836755  0.0040779523376759889
              4677928.859776454           6.7323985625595501e-16       2.7659462185822207e-21        8                              0                                 8                                8                             0                                11                            -3.6206113094052831e-19           6.2423269115054505e-16                177.89012856784638                        177.89012856784638                          179.78157207276513              5.531892437164488e-21  4.0049968789001573   4                    0.20000000000000001  0                    4.9363694343913343e-17    10                           0                          2                   -0.0059014083479265933  0.031592347627836755  0.0040779523376759889
              4847790.1596245142          6.4161163452397637e-16      -3.1628221731978694e-17        9                              0                                 8                                8                             0                                12                            -3.6236449136483511e-19           5.9328234510422353e-16                178.17896251100848                        178.17896251100848                          179.78157207276513              5.6579906888582356e-21  4.0049968789001573   4                    0.20000000000000001  0                    4.8685995920428824e-17    11                           1                          2                   -0.0061293879089191821  0.034181653664973735  0.0046373709933642693
              4833397.2973728552          6.1271466333765935e-16      -2.8896971186317017e-17        10                             0                                 9                                9                             0                                13                            -3.6260010167700025e-19           5.6503977804158511e-16                179.52341524583636                        179.52341524583636                          179.78157207276513              5.7677337862948224e-21  4.0049968789001573   4                    0.20000000000000001  0                    4.8031717663964967e-17    12                           2                          2                   -0.0063450990723610198  0.036781141036363804  0.0052090710144403612
              4625953.9112858456          5.8530920452304374e-16      -2.7405458814615602e-17        11                             0                                 10                               10                            0                                14                            -3.6274917312127716e-19           5.3828634712130553e-16                176.82362591463709                        179.52341524583636                          179.78157207276513              5.8726524270247557e-21  4.0049968789001573   4                    0.20000000000000001  0                    4.7379733922432444e-17    13                           3                          2                   -0.0065612640234934553  0.03946508629760731  0.0058012435425168979
              4226173.5943884524          5.5832700893402753e-16      -2.6982195589016183e-17        12                             0                                 11                               11                            0                                15                            -3.6279262459427854e-19           5.1197593346435507e-16                177.96134295589275                        179.52341524583636                          179.78157207276513              5.9830333237187163e-21  4.0049968789001573   4                    0.20000000000000001  0                    4.6707885060943058e-17    14                           4                          2                   -0.0067905865775561248  0.042326835868017568  0.0064262152873736369
              4226529.4600495696          5.5833000045068939e-16       2.9915166618593698e-21        12                             0                                 12                               12                            0                                16                            -3.6279262459427854e-19           5.1197593346435507e-16                177.96134295589275                        177.96134295589275                          179.78157207276513              8.9745499855780748e-21  6.0074953183502364   6.0000000000000009   0.30000000000000004  0                    4.6707885060943058e-17    15                           0                          3                   -0.0067905865775561248  0.042326835868017568  0.0064262152873736369
              3811114.9378808052          5.3067683424642174e-16      -2.7653166204267693e-17        13                             0                                 12                               12                            0                                17                            -3.6270923570280173e-19           4.8504131219880102e-16                179.51429979020108                        179.51429979020108                          179.78157207276513              9.0812790663074621e-21  6.0074953183502364   6.0000000000000009   0.30000000000000004  0                    4.5989150004257182e-17    16                           1                          3                   -0.0070048861230547019  0.045501065520391314  0.0071022957355732072
              3608624.9982119524          5.0222485700276511e-16      -2.8451977243656598e-17        14                             0                                 13                               13                            0                                18                            -3.6248933818748657e-19           4.5735919284763409e-16                178.52498372588036                        179.51429979020108                          179.78157207276513              9.2167715711171413e-21  6.0074953183502364   6.0000000000000009   0.30000000000000004  0                    4.5218936721747436e-17    17                           2                          3                   -0.007252524621003115  0.049042455220925422  0.0078253375356918918
              3618380.3697240036          4.7459227922524982e-16      -2.7632577777515276e-17        15                             0                                 14                               14                            0                                19                            -3.6217531832204304e-19           4.3050241019460095e-16                179.52974908552201                        179.52974908552201                          179.78157207276513              9.3808478368083465e-21  6.0074953183502364   6.0000000000000009   0.30000000000000004  0                    4.444266350113412e-17    18                           3                          3                   -0.0075251315345260927  0.052785465723768257  0.0085421167475504042
              3677757.9639663617          4.4933926823420513e-16      -2.5253010991044693e-17        16                             0                                 15                               15                            0                                20                            -3.6184396130020868e-19           4.0598051699377099e-16                177.15487467989948                        179.52974908552201                          179.78157207276513              9.5519405326297467e-21  6.0074953183502364   6.0000000000000009   0.30000000000000004  0                    4.3711043261201744e-17    19                           4                          3                   -0.0078002803446929805  0.056506226345633105  0.0091954927578261954
              3676530.9119644696          4.4934245221438273e-16       3.1839801775432539e-21        16                             0                                 16                               16                            0                                21                            -3.6184396130020868e-19           4.0598051699377099e-16                177.15487467989948                        177.15487467989948                          179.78157207276513              1.2735920710172995e-20  8.0099937578003146   8                    0.40000000000000002  0                    4.3711043261201744e-17    20                           0                          4                   -0.0078002803446929805  0.056506226345633105  0.0091954927578261954
              3569047.0378778651          4.2653240823830016e-16      -2.2810043976082531e-17        17                             0                                 16                               16                            0                                22                            -3.6153398825135464e-19           3.8384684146086503e-16                177.88480917451213                        177.88480917451213                          179.78157207276513              1.2800937619890731e-20  8.0099937578003146   8                    0.40000000000000002  0                    4.3034299828066578e-17    21                           1                          4                   -0.0080077914672578247  0.060148504189760171  0.0097699365858398522
              3566270.8068029783          4.0493248137746701e-16      -2.1599926860833143e-17        18                             0                                 17                               17                            0                                23                            -3.6122436512812457e-19           3.628994629751565e-16                178.37237458700378                        178.37237458700378                          179.78157207276513              1.278330781508422e-20  8.0099937578003146   8                    0.40000000000000002  0                    4.2381459459623544e-17    22                           2                          4                   -0.0081870396235911146  0.063871200166476849  0.010287516214539893
              3736393.9524887558          3.8506734577987011e-16      -1.9865135597596932e-17        19                             0                                 18                               18                            0                                24                            -3.6089136013807675e-19           3.4364396645903056e-16                178.24166338819563                        178.37237458700378                          179.78157207276513              1.2633043464590355e-20  8.0099937578003146   8                    0.40000000000000002  0                    4.1771637637512988e-17    23                           3                          4                   -0.0083134670103600823  0.067573688140089502  0.010729689341432312
              3756867.8190476825          3.675956260625733e-16      -1.7471719717296764e-17        20                             0                                 19                               19                            0                                25                            -3.6052000794859184e-19           3.2671568249141843e-16                179.05918250599328                        179.05918250599328                          179.78157207276513              1.2329121787457719e-20  8.0099937578003146   8                    0.40000000000000002  0                    4.1228134457316012e-17    24                           4                          4                   -0.0083710398353997063  0.071099532743480715  0.011083573630145512
              3756159.9678051039          3.6759870834302018e-16       3.0822804468644291e-21        20                             0                                 20                               20                            0                                26                            -3.6052000794859184e-19           3.2671568249141843e-16                179.05918250599328                        179.05918250599328                          179.78157207276513              1.5411402234322149e-20  10.012492197250394   10                   0.5                  0                    4.1228134457316012e-17    25                           0                          5                   -0.0083710398353997063  0.071099532743480715  0.011083573630145512
              3625212.0630304692          3.5151675873478749e-16      -1.6081949608232709e-17        21                             0                                 20                               20                            0                                27                            -3.6008178468227819e-19           3.1114011528107429e-16                176.96076595539429                        179.05918250599328                          179.78157207276513              1.4650637807342854e-20  10.012492197250394   10                   0.5                  0                    4.072207460058812e-17    26                           1                          5                   -0.008308941836955016  0.074612350443207492  0.011377080691461212
              3348803.2209759965          3.3609343540915486e-16      -1.5423323325632632e-17        22                             0                                 21                               21                            0                                28                            -3.5955394712483215e-19           2.9620820852264946e-16                176.80321271422622                        179.05918250599328                          179.78157207276513              1.3603798818858273e-20  10.012492197250394   10                   0.5                  0                    4.0231177034811374e-17    27                           2                          5                   -0.0081644315902977393  0.078264889188090575  0.011629670495897467
              2962182.1263115956          3.2068760483324632e-16      -1.5405830575908523e-17        23                             0                                 22                               22                            0                                29                            -3.5890767805907329e-19           2.8129947419270307e-16                175.71020769095213                        179.05918250599328                          179.78157207276513              1.2166463705915682e-20  10.012492197250394   10                   0.5                  0                    3.9734871854896421e-17    28                           3                          5                   -0.0079140779776533301  0.082241161391093595  0.011857027505113851
              3123721.595466197           3.047257721992979e-16      -1.5961832633948429e-17        24                             0                                 23                               23                            0                                30                            -3.5809303069414227e-19           2.6586005051645568e-16                178.75746755646298                        179.05918250599328                          179.78157207276513              1.0168543299293969e-20  10.012492197250394   10                   0.5                  0                    3.9213646170237081e-17    29                           4                          5                   -0.0075160912988728543  0.086768430356869791  0.012074668745580488
              3124806.6397125865          3.0472780590795777e-16       2.0337086598588151e-21        24                             0                                 24                               24                            0                                31                            -3.5809303069414227e-19           2.6586005051645568e-16                178.75746755646298                        178.75746755646298                          179.78157207276513              1.2202251959152763e-20  12.014990636700473   12.000000000000002   0.60000000000000009  0                    3.9213646170237081e-17    30                           0                          6                   -0.0075160912988728543  0.086768430356869791  0.012074668745580488
              3214236.8854893204          2.90912222753102e-16      -1.3815583154855762e-17        25                             0                                 24                               24                            0                                32                            -3.5725303796196926e-19           2.5250422731077726e-16                173.60277263123629                        178.75746755646298                          179.78157207276513              9.2684703646970831e-21  12.014990636700473   12.000000000000002   0.60000000000000009  0                    3.8755980009922e-17    31                           1                          6                   -0.0069694203288824738  0.091115123428185507  0.01225543545721719
              3225021.5205284497          2.7855131098476171e-16      -1.2360911768340291e-17        26                             0                                 25                               25                            0                                33                            -3.5640557644856189e-19           2.4056105937936251e-16                172.89946152848307                        178.75746755646298                          179.78157207276513              6.0463708788962608e-21  12.014990636700473   12.000000000000002   0.60000000000000009  0                    3.8340610810968854e-17    32                           2                          6                   -0.0063439547904785712  0.095387580815320075  0.012425709355090863
              3153744.6724748192          2.6715614341927597e-16      -1.1395167565485709e-17        27                             0                                 26                               26                            0                                34                            -3.5559783054666473e-19           2.2955751806941378e-16                174.59203538415494                        178.75746755646298                          179.78157207276513              2.5153209930158183e-21  12.014990636700473   12.000000000000002   0.60000000000000009  0                    3.7951707859415857e-17    33                           3                          6                   -0.0056392870037814133  0.099685109903670882  0.012603606143168635
              3000689.336337084           2.5635224113646902e-16      -1.080390228280698e-17        28                             0                                 27                               27                            0                                35                            -3.5488540191185477e-19           2.1913250611618867e-16                176.45164847854394                        178.75746755646298                          179.78157207276513             -1.3842789727991801e-21  12.014990636700473   12.000000000000002   0.60000000000000009  0                    3.7576004701164997e-17    34                           4                          6                   -0.0048450164121864904  0.10411011456039221  0.012803125118068347
# Table End
