# ODT 1.0
# Table Start
# Title: mmArchive Data Table, Wed Aug 17 23:55:48 EDT 2011
# Columns: {Oxs_CGEvolve:evolver:Max mxHxm} {Oxs_CGEvolve:evolver:Total energy} {Oxs_CGEvolve:evolver:Delta E} {Oxs_CGEvolve:evolver:Bracket count} {Oxs_CGEvolve:evolver:Line min count} {Oxs_CGEvolve:evolver:Conjugate cycle count} {Oxs_CGEvolve:evolver:Cycle count} {Oxs_CGEvolve:evolver:Cycle sub count} {Oxs_CGEvolve:evolver:Energy calc count} Oxs_UniformExchange::Energy {Oxs_UniformExchange::Max Spin Ang} {Oxs_UniformExchange::Stage Max Spin Ang} {Oxs_UniformExchange::Run Max Spin Ang} Oxs_Demag::Energy    Oxs_UZeeman::Energy  Oxs_UZeeman::B       Oxs_UZeeman::Bx      Oxs_UZeeman::By      Oxs_UZeeman::Bz      Oxs_MinDriver::Iteration {Oxs_MinDriver::Stage iteration} Oxs_MinDriver::Stage Oxs_MinDriver::mx    Oxs_MinDriver::my    Oxs_MinDriver::mz   
# Units:                 A/m                                 J                                J                                 {}                                   {}                                        {}                                      {}                                   {}                                      {}                                 J                              deg                                    deg                                      deg                           J                     J                 mT                   mT                   mT                   mT                        {}                           {}                         {}                 {}                   {}                   {}           
                  338083.65086617455                1.1084000272101006e-16               1.1084000272101006e-16               0                                    0                                         1                                       1                                    1                                       1                                 0                               0                                      0                                        0                              1.1084000272101006e-16  0                    167.55160819145144   0                   -167.55160819145144   0                      0                            0                          0                    0.99995000374897913  0                    0.0099995000375003636
                  337602.75825025811                1.0991310475904629e-16              -9.2689796196377595e-19               1                                    0                                         1                                       1                                    1                                       2                                 1.670840551920793e-25             0.012170205010359097                    0.012170205010359097                      0.012170205010359097            1.1083574103896399e-16 -9.2263644700175645e-19  167.55160819145144   0                   -167.55160819145144   0                      1                            1                          0                    0.99995013326784354 -0.00034416129191502297  0.0099805979357937748
                  334223.04500619724                1.0342732526312525e-16              -6.4857794959210404e-18               2                                    0                                         1                                       1                                    1                                       3                                 1.069305704756489e-23             0.097361579377224242                    0.097361579377224242                      0.097361579377224242            1.1080837838933145e-16 -7.3810638192632574e-18  167.55160819145144   0                   -167.55160819145144   0                      2                            2                          0                    0.99994770808394562 -0.0027532799815136767  0.0098482504722308111
# Table End
