# ODT 1.0
# Table Start
# Title: mmArchive Data Table, Wed Jun 11 15:40:40 EDT 2014
# Columns: {Oxs_CGEvolve:evolver:Max mxHxm} {Oxs_CGEvolve:evolver:Total energy} {Oxs_CGEvolve:evolver:Delta E} {Oxs_CGEvolve:evolver:Bracket count} {Oxs_CGEvolve:evolver:Line min count} {Oxs_CGEvolve:evolver:Conjugate cycle count} {Oxs_CGEvolve:evolver:Cycle count} {Oxs_CGEvolve:evolver:Cycle sub count} {Oxs_CGEvolve:evolver:Energy calc count} Oxs_UniformExchange::Energy {Oxs_UniformExchange::Max Spin Ang} {Oxs_UniformExchange::Stage Max Spin Ang} {Oxs_UniformExchange::Run Max Spin Ang} Oxs_Demag::Energy    Oxs_UZeeman::Energy  Oxs_UZeeman::B       Oxs_UZeeman::Bx      Oxs_UZeeman::By      Oxs_UZeeman::Bz      Oxs_MinDriver::Iteration {Oxs_MinDriver::Stage iteration} Oxs_MinDriver::Stage Oxs_MinDriver::mx    Oxs_MinDriver::my    Oxs_MinDriver::mz   
# Units:                 A/m                                 J                                J                                 {}                                   {}                                        {}                                      {}                                   {}                                      {}                                 J                              deg                                    deg                                      deg                           J                     J                 mT                   mT                   mT                   mT                        {}                           {}                         {}                 {}                   {}                   {}           
                  338083.65086691629                1.1084000272263903e-16               1.1084000272263903e-16               0                                    0                                         1                                       1                                    0                                       1                                 0                               0                                      0                                        0                              1.1084000272263903e-16  0                    167.55160819145144   0                   -167.55160819145144   0                      0                            0                          0                    0.99995000374968801  0                    0.0099995000374968734
                  337602.75825100101                1.0991310476067723e-16              -9.2689796196180977e-19               1                                    0                                         1                                       1                                    0                                       2                                 1.6708405519148358e-25             0.01217020498730363                    0.01217020498730363                      0.01217020498730363            1.1083574104059291e-16 -9.2263644699973211e-19  167.55160819145144   0                   -167.55160819145144   0                      1                            1                          0                    0.99995013326784588 -0.00034416129191426842  0.0099805979357937193
                  283324.07516108762               -7.4196114983770518e-17              -1.8410921974444774e-16               2                                    0                                         1                                       1                                    0                                       3                                 6.6921598680037727e-21             2.4580706081553263                     2.4580706081553263                       2.4580706081553263             1.1176859414841595e-16 -1.8597140129205448e-16  167.55160819145144   0                   -167.55160819145144   0                      2                            2                          0                    0.99756792781082781 -0.06937094013130711  0.0061653763810543523
                  256327.78655712947               -2.8504927931474424e-16              -2.1085316433097371e-16               3                                    0                                         2                                       2                                    0                                       4                                 2.4095738449831265e-20             2.8471908337223284                     2.8471908337223284                       2.8471908337223284             1.1693549944719478e-16 -4.0200887450038885e-16  167.55160819145144   0                   -167.55160819145144   0                      3                            3                          0                    0.98866551576349759 -0.14995710830519035  0.0033297206992429391
                  289329.78609226272               -5.04537199906598e-16              -2.1948792059185379e-16               4                                    0                                         3                                       3                                    0                                       5                                 8.4211383351339973e-20             5.1372675900157283                     5.1372675900157283                       5.1372675900157283             1.2616983147018613e-16 -6.3079124276013548e-16  167.55160819145144   0                   -167.55160819145144   0                      4                            4                          0                    0.97184115355038558 -0.2352973695570886   0.0016345730418380912
# Table End
