# ODT 1.0
# Table Start
# Title: mmArchive Data Table, Wed Jun 16 18:45:22 EDT 2010
# Columns: {Oxs_RungeKuttaEvolve:evolve:Total energy} {Oxs_RungeKuttaEvolve:evolve:Energy calc count} {Oxs_RungeKuttaEvolve:evolve:Max dm/dt} Oxs_RungeKuttaEvolve:evolve:dE/dt {Oxs_RungeKuttaEvolve:evolve:Delta E} Oxs_CubicAnisotropy::Energy Oxs_UniformExchange::Energy {Oxs_UniformExchange::Max Spin Ang} {Oxs_UniformExchange::Stage Max Spin Ang} {Oxs_UniformExchange::Run Max Spin Ang} Oxs_ScriptUZeeman:rotating:Energy Oxs_ScriptUZeeman:rotating:B Oxs_ScriptUZeeman:rotating:Bx Oxs_ScriptUZeeman:rotating:By Oxs_ScriptUZeeman:rotating:Bz Oxs_Demag::Energy    Oxs_TimeDriver::Iteration {Oxs_TimeDriver::Stage iteration} Oxs_TimeDriver::Stage Oxs_TimeDriver::mx   Oxs_TimeDriver::my   Oxs_TimeDriver::mz   {Oxs_TimeDriver::Last time step} {Oxs_TimeDriver::Simulation time}
# Units:                       J                                            {}                                        deg/ns                                 J/s                                  J                                J                           J                              deg                                    deg                                      deg                                   J                              mT                           mT                            mT                            mT                       J                       {}                            {}                          {}                   {}                   {}                   {}                          s                                 s                
                       4.9473968836328509e-18                          1                                           4054.5040193876953                  -3.3162669406590573e-08                 0                                0                           0                               0                                      0                                        0                                   -1.2750000000000002e-17             75.000000000000014           75.000000000000014            0                             0                         1.7697396883632853e-17    0                             0                           0                     1                    0                    0                          0                                0                         
                       4.947319191204378e-18                          7                                           4055.1007200134895                  -3.3154014224168717e-08                -7.7692428472813552e-23              9.0436440119679578e-27         2.9421009652681952e-25             0.01310744760045884                    0.01310744760045884                      0.01310744760045884                 -1.2749999986607224e-17             75.000000000000014           74.9999999918724              0.0011041472667919112           0                         1.769731887455786e-17    1                             1                           0                     0.99999999905795378  2.258444469394817e-11 -2.2533564328224061e-10        2.343073272235817e-15              2.343073272235817e-15       
                       4.9470086250093113e-18                          13                                          4057.473112308644                   -3.3119188276895766e-08                -3.1056619506647337e-22              2.2598841023871413e-25         7.3510119645004095e-24             0.065517996177875029                    0.065517996177875029                      0.065517996177875029                 -1.2749999665317232e-17             75.000000000000014           74.999999796809817            0.0055207363291733839           0                         1.7697000713326168e-17    2                             2                           0                     0.99999997645953165  5.6964422422622135e-10 -5.6328465364542108e-09        9.3722930889432681e-15              1.1715366361179086e-14       
                       4.9470086250093113e-18                          14                                          4057.473112308644                   -3.3119188276895766e-08                 0                                2.2598841023871413e-25         7.3510119645004095e-24             0.065517996177875029                    0.065517996177875029                      0.065517996177875029                 -1.2749999665317232e-17             75.000000000000014           74.999999796809817            0.0055207363291733839           0                         1.7697000713326168e-17    3                             0                           1                     0.99999997645953165  5.6964422422622135e-10 -5.6328465364542108e-09        0                                1.1715366361179086e-14       
                       4.9457696701084462e-18                          20                                          4066.7332025127344                  -3.2976625892547787e-08                -1.238954900865033e-21              3.9789826668780577e-24         1.2936385415286848e-22             0.27484163815587692                    0.27484163815587692                      0.27484163815587692                 -1.2749994106092625e-17             75.000000000000014           74.999996415724951            0.02318709223409475           0                         1.7695630433364252e-17    4                             1                           1                     0.99999958551985269  1.0403514979871537e-08 -9.9324881132284076e-08        3.7489172355773072e-14              4.9204538716952155e-14       
                       4.9408701533720286e-18                          26                                          4100.1745892021745                  -3.2355965380124671e-08                -4.8995167364178412e-21              6.4646796995766175e-23         2.0969477935866182e-21             1.1063628149700298                     1.1063628149700298                       1.1063628149700298                  -1.2749904152038805e-17             75.000000000000014           74.999941278040509            0.093852493186462549           0                         1.7688612710820249e-17    5                             2                           1                     0.99999326522468401  1.9366840568743889e-07 -1.6247078812980287e-06        1.4995668942309229e-13              1.9916122814004446e-13       
                       4.9408701533720286e-18                          27                                          4100.1745892021745                  -3.2355965380124671e-08                 0                                6.4646796995766175e-23         2.0969477935866182e-21             1.1063628149700298                     1.1063628149700298                       1.1063628149700298                  -1.2749904152038805e-17             75.000000000000014           74.999941278040509            0.093852493186462549           0                         1.7688612710820249e-17    6                             0                           2                     0.99999326522468401  1.9366840568743889e-07 -1.6247078812980287e-06        0                                1.9916122814004446e-13       
                       4.9223606500971554e-18                          33                                          4181.730427229144                   -2.9206744000110041e-08                -1.850950327487301e-20              9.9299074324216332e-22         3.1769358186043223e-20             4.2989898596596765                     4.2989898596596765                       4.2989898596596765                  -1.2748518646256748e-17             75                           74.999054915609207            0.37651263648737915           0                         1.7638116947424619e-17    7                             1                           2                     0.99989639210913039  4.6020746412267822e-06 -2.5976851452942803e-05        5.9982675769236916e-13              7.9898798583241364e-13       
                       4.8819363355994923e-18                          39                                          4131.4489277941266                  -1.942187181876164e-08                -4.0424314497663069e-20              7.6276655893094218e-21         2.2482990285213581e-19             11.281542945072868                     11.281542945072868                       11.281542945072868                  -1.2738210830749729e-17             75.000000000000014           74.990899434636205            1.1683329937481857            0                         1.7387689597907776e-17    8                             2                           2                     0.99919530184571381  8.3494444017689855e-05 -0.00024494417353765466        1.6803919134497909e-12              2.4793798992822046e-12       
                       4.8819363355994923e-18                          40                                          4131.4489277941266                  -1.9421871818761636e-08                 0                                7.6276655893094218e-21         2.2482990285213581e-19             11.281542945072868                     11.281542945072868                       11.281542945072868                  -1.2738210830749729e-17             75.000000000000014           74.990899434636205            1.1683329937481857            0                         1.7387689597907776e-17    9                             0                           3                     0.99919530184571381  8.3494444017689855e-05 -0.00024494417353765466        0                                2.4793798992822046e-12       
                       4.8508376570143228e-18                          46                                          3953.6279575817134                  -1.6535401413877895e-08                -3.1098678585170022e-20              1.6405382067530484e-20         4.0440842271593188e-19             14.742845509079137                     14.742845509079137                       14.742845509079137                  -1.2722996590650988e-17             75.000000000000014           74.97265043233736             2.025262242413703             0                         1.7153020442881849e-17    10                            1                           3                     0.99823602314584248  0.00037328662843935835 -0.00071652538993959318        1.8188825420072717e-12              4.2982624412894764e-12       
                       4.8162786295673315e-18                          52                                          3847.788194271267                   -2.0034298271929848e-08                -3.4559027446990698e-20              2.4699184023376413e-20         4.4706511847834707e-19             15.061237047872376                     15.061237047872376                       15.061237047872376                  -1.2706145526708349e-17             75.000000000000014           74.943077336740046            2.9214994950199107            0                         1.7050659853773956e-17    11                            2                           3                     0.99727725587780114  0.0010289225215642634 -0.0014427585937015288        1.9029209514058204e-12              6.2011833926952964e-12       
                       4.8162786295673315e-18                          53                                          3847.788194271267                   -2.0034298271929848e-08                 0                                2.4699184023376413e-20         4.4706511847834707e-19             15.061237047872376                     15.061237047872376                       15.061237047872376                  -1.2706145526708349e-17             75.000000000000014           74.943077336740046            2.9214994950199107            0                         1.7050659853773956e-17    12                            0                           4                     0.99727725587780114  0.0010289225215642634 -0.0014427585937015288        0                                6.2011833926952964e-12       
                       4.7778654682540113e-18                          59                                          3455.4629161989401                  -2.0279641380272297e-08                -3.8413161313320757e-20              3.4353141564636013e-20         4.2052807250409053e-19             14.066068230170726                     15.061237047872376                       15.061237047872376                  -1.2685754581764187e-17             75.000000000000014           74.903672517152827            3.7999794003553413            0                         1.7008738835949471e-17    13                            1                           4                     0.99613260466267661  0.002130372541254956 -0.0023522020917667017        1.8660774123163164e-12              8.0672608050116124e-12       
                       4.7416333052591531e-18                          65                                          3287.5798271437538                  -1.7760372247190443e-08                -3.6232162994858055e-20              4.7749496586984939e-20         3.7276796130264065e-19             12.142013027013295                     15.061237047872376                       15.061237047872376                  -1.2658302227358394e-17             75.000000000000014           74.852497008455273            4.7014563274794039            0                         1.697941807472792e-17    14                            2                           4                     0.99452434013780877  0.0038224629028224375 -0.0034509497920726206        1.9160850140376945e-12              9.983345819049307e-12       
                       4.7416333052591531e-18                          66                                          3287.5798271437538                  -1.7760372247190443e-08                 0                                4.7749496586984939e-20         3.7276796130264065e-19             12.142013027013295                     12.142013027013295                       15.061237047872376                  -1.2658302227358394e-17             75.000000000000014           74.852497008455273            4.7014563274794039            0                         1.697941807472792e-17    15                            0                           5                     0.99452434013780877  0.0038224629028224375 -0.0034509497920726206        0                                9.983345819049307e-12       
                       4.7047419653243004e-18                          72                                          4033.9532684819214                  -1.9090249806805057e-08                -3.6891339934852276e-20              6.6371731079383593e-20         3.0472073181123188e-19             10.179273138619248                     12.142013027013295                       15.061237047872376                  -1.2620512075247083e-17             75.000000000000014           74.785632125532103            5.6665004707121955            0                         1.6954161577680768e-17    16                            1                           5                     0.99220123685452977  0.0063371795815821523 -0.0047693479738128335        2.0528112352932731e-12              1.203615705434258e-11       
                       4.6600777341640881e-18                          78                                          4255.2262218962687                  -2.218966204809022e-08                -4.466423116021274e-20              9.1723811634625691e-20         3.0919955501698634e-19             10.608707589949558                     12.142013027013295                       15.061237047872376                  -1.2568156628374247e-17             75.000000000000014           74.702467769538586            6.6739275648638543            0                         1.6827310995886721e-17    17                            2                           5                     0.98878958920330473  0.0097859452524576441 -0.0062512330840177495        2.1451148914266025e-12              1.4181271945769183e-11       
                       4.6600777341640881e-18                          79                                          4255.2262218962687                  -2.218966204809022e-08                 0                                9.1723811634625691e-20         3.0919955501698634e-19             10.608707589949558                     10.608707589949558                       15.061237047872376                  -1.2568156628374247e-17             75.000000000000014           74.702467769538586            6.6739275648638543            0                         1.6827310995886721e-17    18                            0                           6                     0.98878958920330473  0.0097859452524576441 -0.0062512330840177495        0                                1.4181271945769183e-11       
                       4.6109904164835305e-18                          85                                          3955.7711709043147                  -2.1543129472303094e-08                -4.908731768055741e-20              1.2382456912949276e-19         4.7560811907753708e-19             11.452324556692368                     11.452324556692368                       15.061237047872376                  -1.2497440014702708e-17             75.000000000000014           74.602038917271031            7.7159438428477785            0                         1.6508997742979209e-17    19                            1                           6                     0.98394596955240965  0.01425328085093378 -0.0078334269481449923        2.2214915350239339e-12              1.6402763480793117e-11       
                       4.5628014493210881e-18                          91                                          3984.1059190626993                  -2.1555762661884537e-08                -4.8188967162442421e-20              1.5850678646448231e-19         7.1481799722466265e-19             12.655894373320853                     12.655894373320853                       15.061237047872376                  -1.2411579140731083e-17             75.000000000000014           74.484272033723784            8.7802744607577097            0                         1.6101055806363026e-17    20                            2                           6                     0.97787061082987314  0.019738388937917177 -0.009423299936363037        2.2723830267483022e-12              1.8675146507541419e-11       
# Table End
