# ODT 1.0
# Table Start
# Title: mmArchive Data Table, Wed Jun 11 15:40:44 EDT 2014
# Columns: {Oxs_CGEvolve:evolve:Max mxHxm} {Oxs_CGEvolve:evolve:Total energy} {Oxs_CGEvolve:evolve:Delta E} {Oxs_CGEvolve:evolve:Bracket count} {Oxs_CGEvolve:evolve:Line min count} {Oxs_CGEvolve:evolve:Conjugate cycle count} {Oxs_CGEvolve:evolve:Cycle count} {Oxs_CGEvolve:evolve:Cycle sub count} {Oxs_CGEvolve:evolve:Energy calc count} Oxs_UniaxialAnisotropy::Energy Oxs_UniformExchange::Energy {Oxs_UniformExchange::Max Spin Ang} {Oxs_UniformExchange::Stage Max Spin Ang} {Oxs_UniformExchange::Run Max Spin Ang} Oxs_StageZeeman::Energy {Oxs_StageZeeman::B max} {Oxs_StageZeeman::Bx max} {Oxs_StageZeeman::By max} {Oxs_StageZeeman::Bz max} Oxs_Demag::Energy    Oxs_MinDriver::Iteration {Oxs_MinDriver::Stage iteration} Oxs_MinDriver::Stage Oxs_MinDriver::mx    Oxs_MinDriver::my    Oxs_MinDriver::mz   
# Units:                 A/m                               J                                J                               {}                                   {}                                      {}                                     {}                                  {}                                     {}                                  J                             J                              deg                                    deg                                      deg                              J                       mT                       mT                        mT                        mT                     J                       {}                           {}                         {}                 {}                   {}                   {}           
                 225987.96611041229                1.224425061041527e-17             1.224425061041527e-17              0                                    0                                       1                                      1                                   0                                      1                                   1.9992003998001003e-18          0                               0                                      0                                        0                              -3.1992002998750549e-18      250                      250                       0                         0                       1.3444250510490225e-17    0                            0                          0                    0.99975009371095458  0.019995001874219091  0.0099975009371095457
                 225257.86308570378                1.2240948419152565e-17            -3.3021912627053019e-21              1                                    0                                       1                                      1                                   0                                      2                                   1.9992008055526436e-18          3.739376305943018e-24             0.032155932906722605                    0.032155932906722605                      0.032155932906722605            -3.1992026328240384e-18      250                      250                       0                         0                       1.3440946507047653e-17    1                            1                          0                    0.99975039139073263  0.01998968048047102  0.0099767871902016123
                 143571.0429451642                 1.1801340051824751e-17            -4.3960836732781339e-19              2                                    0                                       1                                      1                                   0                                      3                                   1.9984872880402228e-18          1.5001018568390426e-19             6.4215197322860424                     6.4215197322860424                       6.4215197322860424             -3.199573889739407e-18      250                      250                       0                         0                       1.2852416467840031e-17    2                            2                          0                    0.99917291600212821  0.018905751888402576  0.0058083286427830375
                 264269.51399000641                1.1673224550169078e-17            -1.2811550165567338e-19              3                                    0                                       2                                      2                                   0                                      4                                   1.9961941556500655e-18          2.4586525894873247e-19             12.103174388509393                     12.103174388509393                       12.103174388509393             -3.1996566772090008e-18      250                      250                       0                         0                       1.263082181277928e-17    3                            3                          0                    0.99838952832352512  0.017833523550240406  0.0029353539339267015
                 194261.73621510915                1.1431656121170974e-17            -2.4156842899810425e-19              5                                    0                                       2                                      3                                   1                                      6                                   1.9882684447688528e-18          3.8613204681598117e-19             11.417093916643497                     12.103174388509393                       12.103174388509393             -3.1998427834236395e-18      250                      250                       0                         0                       1.2257098413009779e-17    4                            4                          0                    0.9960345430916181   0.015965987306170167 -0.001504701185683638
                 194261.73621510915                1.1475266708620903e-17             4.3610587449929859e-20              5                                    0                                       3                                      4                                   0                                      7                                   1.9882684447688528e-18          3.8613204681598117e-19             11.417093916643497                     11.417093916643497                       12.103174388509393             -3.1562321959737098e-18      250                      246.20193825305202        43.412044416732584        0                       1.2257098413009779e-17    5                            0                          1                    0.9960345430916181   0.015965987306170167 -0.001504701185683638
                 383127.81711419619                1.1440674187925555e-17            -3.4592520695347893e-20              6                                    0                                       3                                      4                                   0                                      8                                   1.9853785156658288e-18          4.2702761450392983e-19             8.5723398287451413                     11.417093916643497                       12.103174388509393             -3.1666749093256445e-18      250                      246.20193825305202        43.412044416732584        0                       1.2194942967081442e-17    6                            1                          1                    0.99550352169003109  0.016538280899259877 -0.00081452270600893386
                 161953.78747335984                1.1390509331263083e-17            -5.0164856662473619e-20              6                                    1                                       3                                      4                                   0                                      9                                   1.9867105906349895e-18          3.4897611646015092e-19             8.6057399619139883                     11.417093916643497                       12.103174388509393             -3.1623255399159046e-18      250                      246.20193825305202        43.412044416732584        0                       1.2217148164083846e-17    7                            2                          1                    0.99579046649033776  0.016291064410582923 -0.0011148494033221244
                 165896.28134539793                1.1316425604526127e-17            -7.4083726736955626e-20              7                                    1                                       3                                      5                                   1                                      10                                  1.9831533605962186e-18          3.4420020222640475e-19             8.2568162892893131                     11.417093916643497                       12.103174388509393             -3.1701098495802829e-18      250                      246.20193825305202        43.412044416732584        0                       1.2159181891283786e-17    8                            3                          1                    0.99506476068351291  0.016902801541187448 -0.00044147194890296529
                 190747.78881361734                1.1315038074695638e-17            -1.3875298304879087e-21              8                                    2                                       3                                      5                                   1                                      12                                  1.9825437411372058e-18          3.5284387169505599e-19             8.6662455206923319                     11.417093916643497                       12.103174388509393             -3.1712275430748497e-18      250                      246.20193825305202        43.412044416732584        0                       1.2150878004938227e-17    9                            4                          1                    0.99493067121927359  0.016997806664187102 -0.00033592187502793735
                 190747.78881361734                1.1437456551675512e-17             1.224184769798734e-19              8                                    2                                       4                                      6                                   0                                      13                                  1.9825437411372058e-18          3.5284387169505599e-19             8.6662455206923319                     8.6662455206923319                       12.103174388509393             -3.0488090660949765e-18      250                      234.9231551964771         85.505035831417175        0                       1.2150878004938227e-17    10                           0                          2                    0.99493067121927359  0.016997806664187102 -0.00033592187502793735
                 211777.31561421583                1.1380217513313238e-17            -5.7239038362273514e-20              9                                    3                                       4                                      6                                   0                                      15                                  1.9812922984628353e-18          3.2544017938433386e-19             8.3862131675167948                     8.6662455206923319                       12.103174388509393             -3.0589166475297678e-18      250                      234.9231551964771         85.505035831417175        0                       1.2132401682995838e-17    11                           1                          2                    0.99463171922258442  0.017471274343511756 -0.00025917199518599301
                 104850.80125432306                1.132940003403768e-17            -5.0817479275558154e-20              10                                   3                                       4                                      7                                   1                                      16                                  1.9787507868781904e-18          3.3410949891105961e-19             8.6795587722833965                     8.6795587722833965                       12.103174388509393             -3.0731207136925063e-18      250                      234.9231551964771         85.505035831417175        0                       1.2089660461940937e-17    12                           2                          2                    0.99397829029721407  0.018342359974320925 -0.00013032930248195416
                 340765.3192521403                 1.1327711695740554e-17            -1.6883382971266509e-21              11                                   3                                       4                                      7                                   1                                      17                                  1.9759964609909187e-18          3.8927232968866004e-19             10.28985877644331                      10.28985877644331                        12.103174388509393             -3.0865245509717363e-18      250                      234.9231551964771         85.505035831417175        0                       1.204896745603271e-17    13                           3                          2                    0.9932453156555725   0.019208887446809299 -1.5879171671837553e-06
                 217881.13581477175                1.132240361606333e-17            -5.3080796772238927e-21              11                                   4                                       4                                      7                                   1                                      18                                  1.9773055353027849e-18          3.5781427007573496e-19             9.2891325608921136                     10.28985877644331                        12.103174388509393             -3.0803797744104472e-18      250                      234.9231551964771         85.505035831417175        0                       1.2067663585095257e-17    14                           4                          2                    0.99359660792538051  0.0188057931298912  -6.1560208222567959e-05
                 217881.13581477175                1.15196089798453e-17             1.9720536378197039e-19              11                                   4                                       5                                      8                                   0                                      19                                  1.9773055353027849e-18          3.5781427007573496e-19             9.2891325608921136                     9.2891325608921136                       12.103174388509393             -2.8831744106284769e-18      250                      216.50635094610968        124.99999999999999        0                       1.2067663585095257e-17    15                           0                          3                    0.99359660792538051  0.0188057931298912  -6.1560208222567959e-05
                 184620.90673380235                1.1474307931393576e-17            -4.5301048451724666e-20              12                                   5                                       5                                      8                                   0                                      21                                  1.9759763892974243e-18          3.611497493687177e-19             7.8126209922366483                     9.2891325608921136                       12.103174388509393             -2.8976656032280361e-18      250                      216.50635094610968        124.99999999999999        0                       1.2034847395955469e-17    16                           1                          3                    0.99325551579734261  0.019436016060008096 -3.5635073235703811e-05
                 93160.150693528427                1.1420843418509027e-17            -5.3464512884547725e-20              13                                   5                                       5                                      9                                   1                                      22                                  1.9730219380736739e-18          3.9623306494576578e-19             6.8575938272228658                     9.2891325608921136                       12.103174388509393             -2.924992586997465e-18      250                      216.50635094610968        124.99999999999999        0                       1.1976581002487053e-17    17                           2                          3                    0.99247380953358411  0.020743811721959663  1.496454193054144e-05
                 207579.63776763217                1.1419101835394866e-17            -1.7415831141615e-21              14                                   5                                       5                                      9                                   1                                      23                                  1.9698472473820778e-18          4.7825496605981307e-19             9.0079997983879192                     9.2891325608921136                       12.103174388509393             -2.9510023003482338e-18      250                      216.50635094610968        124.99999999999999        0                       1.1922001922301209e-17    18                           3                          3                    0.99160760244443669  0.022045102751778643  6.5494006601772616e-05
                 150407.34339808417                1.1413486773252019e-17            -5.6150621428476772e-21              14                                   6                                       5                                      9                                   1                                      24                                  1.9713549308258097e-18          4.3417533685021944e-19             7.8992961462826132                     9.2891325608921136                       12.103174388509393             -2.93903492145117e-18      250                      216.50635094610968        124.99999999999999        0                       1.194699142702716e-17    19                           4                          3                    0.99202208773415634  0.021438971417215201  4.1928231669719421e-05
                 150407.34339808417                1.1677724185246587e-17             2.6423741199456792e-19              14                                   6                                       6                                      10                                  0                                      25                                  1.9713549308258097e-18          4.3417533685021944e-19             7.8992961462826132                     7.8992961462826132                       12.103174388509393             -2.6747975094566021e-18      250                      191.51111077974451        160.6969024216348         0                       1.194699142702716e-17    20                           0                          4                    0.99202208773415634  0.021438971417215201  4.1928231669719421e-05
                 394405.01035748638                1.1663870133164498e-17            -1.3854052082087945e-20              15                                   6                                       6                                      10                                  0                                      26                                  1.9677169670103301e-18          5.0179030742704488e-19             10.610442720201718                     10.610442720201718                       12.103174388509393             -2.7227281308833055e-18      250                      191.51111077974451        160.6969024216348         0                       1.1917090989610428e-17    21                           1                          4                    0.99107148575479886  0.023332155533945471  6.7666358461265268e-05
                 166494.44456263521                1.1624195389532341e-17            -3.9674743632157606e-20              15                                   7                                       6                                      10                                  0                                      27                                  1.9694369597649035e-18          4.269569287964685e-19             7.7028554617575571                     10.610442720201718                       12.103174388509393             -2.7008161117116546e-18      250                      191.51111077974451        160.6969024216348         0                       1.1928617612682623e-17    22                           2                          4                    0.99154121954526675  0.022457690606044616  5.5782962620714865e-05
                 181342.00903031931                1.1577454780514827e-17            -4.6740609017512829e-20              16                                   7                                       6                                      11                                  1                                      28                                  1.9647992472304347e-18          4.8396535537253742e-19             9.7157447299060244                     10.610442720201718                       12.103174388509393             -2.7526648327976657e-18      250                      191.51111077974451        160.6969024216348         0                       1.1881355010709521e-17    23                           3                          4                    0.99031293301573864  0.024732825140256102  8.1754542230736687e-05
                 139454.66003500571                1.1576098582985269e-17            -1.3561975295599488e-21              16                                   8                                       6                                      11                                  1                                      29                                  1.9654913910392553e-18          4.6824834365415213e-19             9.3458082164692264                     10.610442720201718                       12.103174388509393             -2.7453845111713026e-18      250                      191.51111077974451        160.6969024216348         0                       1.1887743359463163e-17    24                           4                          4                    0.99049976327795397  0.024406709521916932  7.8027120584212581e-05
                 139454.66003500571                1.1902990918799407e-17             3.2689233581413956e-19              16                                   8                                       7                                      12                                  0                                      30                                  1.9654913910392553e-18          4.6824834365415213e-19             9.3458082164692264                     9.3458082164692264                       12.103174388509393             -2.4184921753571632e-18      250                      160.69690242163483        191.51111077974451        0                       1.1887743359463163e-17    25                           0                          5                    0.99049976327795397  0.024406709521916932  7.8027120584212581e-05
                 300935.12874653743                1.1867386303942333e-17            -3.5604614857074674e-20              17                                   8                                       7                                      12                                  0                                      31                                  1.9626310069706644e-18          5.2246903000954392e-19             7.3174532752151737                     9.3458082164692264                       12.103174388509393             -2.463030748454841e-18      250                      160.69690242163483        191.51111077974451        0                       1.1845317015416965e-17    26                           1                          5                    0.98973922162367978  0.0259926392566035   8.1076505075511614e-05
                 162495.94642816979                1.1855844953777944e-17            -1.1541350164388776e-20              17                                   9                                       7                                      12                                  0                                      32                                  1.963593609164108e-18          4.8236193824855796e-19             7.1616584266929229                     9.3458082164692264                       12.103174388509393             -2.4484204065690531e-18      250                      160.69690242163483        191.51111077974451        0                       1.1858309812934331e-17    27                           2                          5                    0.99000441145453655  0.025468650385394843  8.0083014365752144e-05
                 125343.17062731089                1.1800818669654e-17            -5.5026284123943511e-20              18                                   9                                       7                                      13                                  1                                      33                                  1.958973601516124e-18          5.4938221866370322e-19             7.7750430397589705                     9.3458082164692264                       12.103174388509393             -2.51179065784909e-18      250                      160.69690242163483        191.51111077974451        0                       1.1804253507323262e-17    28                           3                          5                    0.98876304715188967  0.027903932646888986  8.413435758347618e-05
                 133470.10232335981                1.1800603500832411e-17            -2.1516882159044625e-22              19                                   10                                      7                                      13                                  1                                      35                                  1.958653765897833e-18          5.5696078323373157e-19             7.9518646847048782                     9.3458082164692264                       12.103174388509393             -2.5159134376669994e-18      250                      160.69690242163483        191.51111077974451        0                       1.1800902389367844e-17    29                           4                          5                    0.98867548235162672  0.028065397591887462  8.4401158514837047e-05
                 133470.10232335981                1.2181764634686001e-17             3.81161133853591e-19              19                                   10                                      8                                      14                                  0                                      36                                  1.958653765897833e-18          5.5696078323373157e-19             7.9518646847048782                     7.9518646847048782                       12.103174388509393             -2.1347523038134087e-18      250                      125.00000000000003        216.50635094610965        0                       1.1800902389367844e-17    30                           0                          6                    0.98867548235162672  0.028065397591887462  8.4401158514837047e-05
                 254389.96680646992                1.2143693151683845e-17            -3.8071483002156229e-20              20                                   10                                      8                                      14                                  0                                      37                                  1.9552263158228529e-18          5.9655049607149365e-19             9.2094101819909522                     9.2094101819909522                       12.103174388509393             -2.1917985945414663e-18      250                      125.00000000000003        216.50635094610965        0                       1.1783714934330965e-17    31                           1                          6                    0.98777831790251769  0.030005317436373802  8.3677062969648354e-05
                 135510.52354190385                1.2129212744562719e-17            -1.4480407121125885e-20              20                                   11                                      8                                      14                                  0                                      38                                  1.9564244603427742e-18          5.569438962343369e-19             7.6504960509295543                     9.2094101819909522                       12.103174388509393             -2.1723112098744517e-18      250                      125.00000000000003        216.50635094610965        0                       1.1788155597860059e-17    32                           2                          6                    0.98810438620799168  0.029338891515489601  8.3942583666386873e-05
                 147803.45401568434                1.2084426840718905e-17            -4.4785903843814148e-20              21                                   11                                      8                                      15                                  1                                      39                                  1.9511525766256325e-18          6.266285097369155e-19             9.9757853871743905                     9.9757853871743905                       12.103174388509393             -2.2496351199301916e-18      250                      125.00000000000003        216.50635094610965        0                       1.1756280874286548e-17    33                           3                          6                    0.98668942023092621  0.032187087443241162  8.1135683843653553e-05