# ODT 1.0
# Table Start
# Title: mmArchive Data Table, Fri Sep 30 17:47:53 EDT 2011
# Columns: {Oxs_CGEvolve:evolve:Max mxHxm} {Oxs_CGEvolve:evolve:Total energy} {Oxs_CGEvolve:evolve:Delta E} {Oxs_CGEvolve:evolve:Bracket count} {Oxs_CGEvolve:evolve:Line min count} {Oxs_CGEvolve:evolve:Conjugate cycle count} {Oxs_CGEvolve:evolve:Cycle count} {Oxs_CGEvolve:evolve:Cycle sub count} {Oxs_CGEvolve:evolve:Energy calc count} Oxs_UniaxialAnisotropy::Energy Oxs_UniformExchange::Energy {Oxs_UniformExchange::Max Spin Ang} {Oxs_UniformExchange::Stage Max Spin Ang} {Oxs_UniformExchange::Run Max Spin Ang} Oxs_StageZeeman::Energy {Oxs_StageZeeman::B max} {Oxs_StageZeeman::Bx max} {Oxs_StageZeeman::By max} {Oxs_StageZeeman::Bz max} Oxs_Demag::Energy    Oxs_MinDriver::Iteration {Oxs_MinDriver::Stage iteration} Oxs_MinDriver::Stage Oxs_MinDriver::mx    Oxs_MinDriver::my    Oxs_MinDriver::mz   
# Units:                 A/m                               J                                J                               {}                                   {}                                      {}                                     {}                                  {}                                     {}                                  J                             J                              deg                                    deg                                      deg                              J                       mT                       mT                        mT                        mT                     J                       {}                           {}                         {}                 {}                   {}                   {}           
                 225987.96611044227                1.2244250610335606e-17             1.2244250610335606e-17              0                                    0                                       1                                      1                                   1                                      1                                   1.999200399800101e-18          0                               0                                      0                                        0                              -3.1992002998750499e-18      249.99999999999994       249.99999999999994        0                         0                       1.3444250510410559e-17    0                            0                          0                    0.99975009371100365  0.019995001874219199  0.0099975009371095994
                 225257.86308573664                1.2240948419072867e-17            -3.3021912627388334e-21              1                                    0                                       1                                      1                                   1                                      2                                   1.9992008055526436e-18          3.7393763059463586e-24             0.032155932906753865                    0.032155932906753865                      0.032155932906753865            -3.199202632824038e-18      249.99999999999994       249.99999999999994        0                         0                       1.3440946506967956e-17    1                            1                          0                    0.99975039139073463  0.019989680480471009  0.009976787190201614
                 220143.02623870375                1.2218140070064101e-17            -2.2808349008766452e-20              2                                    0                                       1                                      1                                   1                                      3                                   1.999202535536194e-18          2.3931351480275781e-22             0.25724276068393193                    0.25724276068393193                      0.25724276068393193            -3.1992188286700955e-18      249.99999999999994       249.99999999999994        0                         0                       1.34179170496832e-17    2                            2                          0                    0.99975158602107028  0.01995241286146833  0.0098317822276820042
                 220143.02623870375                1.2255720901303616e-17             3.758083123951553e-20              2                                    0                                       2                                      2                                   2                                      4                                   1.999202535536194e-18          2.3931351480275781e-22             0.25724276068393193                    0.25724276068393193                      0.25724276068393193            -3.1616379974305812e-18      249.99999999999994       246.20193825305196        43.412044416732577        0                       1.34179170496832e-17    3                            0                          1                    0.99975158602107028  0.01995241286146833  0.0098317822276820042
                 219428.40337456335                1.2252453217177076e-17            -3.2676841265404306e-21              3                                    0                                       2                                      2                                   0                                      5                                   1.999202189417568e-18          3.0170762681160599e-22             0.28831912912437424                    0.28831912912437424                      0.28831912912437424            -3.1616968357003526e-18      249.99999999999994       246.20193825305196        43.412044416732577        0                       1.3414646155833047e-17    4                            1                          1                    0.9997515243313374   0.019952476756695561  0.0098108970211539422
                 214422.11910932246                1.2229886659196132e-17            -2.2566557980944082e-20              4                                    0                                       2                                      2                                   0                                      6                                   1.999198559112019e-18          9.4623645178375907e-22             0.50584922677805799                    0.50584922677805799                      0.50584922677805799            -3.1621073877681494e-18      249.99999999999994       246.20193825305196        43.412044416732577        0                       1.339184925140048e-17    5                            2                          1                    0.99975018932410753  0.019952905792169021  0.0096646918517504024
                 214422.11910932246                1.2363024277962852e-17             1.3313761876672004e-19              4                                    0                                       3                                      3                                   1                                      7                                   1.999198559112019e-18          9.4623645178375907e-22             0.50584922677805799                    0.50584922677805799                      0.50584922677805799            -3.0289697690014289e-18      250                      234.9231551964771         85.505035831417175        0                       1.339184925140048e-17    6                            0                          2                    0.99975018932410753  0.019952905792169021  0.0096646918517504024
                 213722.62418135232                1.2359646370142594e-17            -3.3779078202576455e-21              5                                    0                                       3                                      3                                   0                                      8                                   1.9991973967188557e-18          1.0675786426599707e-21             0.53589862610661954                    0.53589862610661954                      0.53589862610661954            -3.0292316981594374e-18      250                      234.9231551964771         85.505035831417175        0                       1.3388613092940515e-17    7                            1                          2                    0.99974975660230903  0.01995845007574823  0.0096436500715713913
                 208822.42204084687                1.2336325499591558e-17            -2.3320870551035692e-20              6                                    0                                       3                                      3                                   0                                      9                                   1.9991877883164786e-18          2.1339653361970169e-21             0.74624015317470704                    0.74624015317470704                      0.74624015317470704            -3.0310596754457523e-18      250                      234.9231551964771         85.505035831417175        0                       1.3366063421384635e-17    8                            2                          2                    0.99974576901570578  0.019997240441993483  0.0094963485282338212
                 208822.42204084687                1.2560463802015825e-17             2.2413830242426648e-19              6                                    0                                       4                                      4                                   1                                      10                                  1.9991877883164786e-18          2.1339653361970169e-21             0.74624015317470704                    0.74624015317470704                      0.74624015317470704            -2.806921373021487e-18      249.99999999999997       216.50635094610965        124.99999999999996        0                       1.3366063421384635e-17    9                            0                          3                    0.99974576901570578  0.019997240441993483  0.0094963485282338212
                 208137.70924096261                1.2556858378607117e-17            -3.6054234087075227e-21              7                                    0                                       4                                      4                                   0                                      11                                  1.9991856896458404e-18          2.3186149328005982e-21             0.7753116030581968                     0.7753116030581968                       0.7753116030581968             -2.8075107735377964e-18      249.99999999999997       216.50635094610965        124.99999999999996        0                       1.3362864847566275e-17    10                           1                          3                    0.9997449400081776   0.020008194302032042  0.0094751645774614427
                 203341.16601572232                1.2531973947472736e-17            -2.4884431134380861e-20              8                                    0                                       4                                      4                                   0                                      12                                  1.9991691149504644e-18          3.8446820507354188e-21             0.97880769010237245                    0.97880769010237245                      0.97880769010237245            -2.8116249248658173e-18      249.99999999999997       216.50635094610965        124.99999999999996        0                       1.3340585075337351e-17    11                           2                          3                    0.99973808646901818  0.020084848977166048  0.0093268671858295123
                 203341.16601572232                1.2839975594458547e-17             3.0800164698581034e-19              8                                    0                                       5                                      5                                   1                                      13                                  1.9991691149504644e-18          3.8446820507354188e-21             0.97880769010237245                    0.97880769010237245                      0.97880769010237245            -2.5036232778800054e-18      249.99999999999991       191.51111077974446        160.69690242163477        0                       1.3340585075337351e-17    12                           0                          4                    0.99973808646901818  0.020084848977166048  0.0093268671858295123
                 202670.90215169222                1.2836065335680993e-17            -3.9102587775540251e-21              9                                    0                                       5                                      5                                   0                                      14                                  1.9991659176167228e-18          4.0992146841813931e-21             1.0069466497994091                     1.0069466497994091                       1.0069466497994091             -2.5046275906907494e-18      249.99999999999991       191.51111077974446        160.69690242163477        0                       1.3337427794070837e-17    13                           1                          4                    0.99973682564259969  0.020100974883620972  0.0093055547673333728
                 197975.68507366491                1.2809081379324844e-17            -2.6983956356148741e-20              10                                   0                                       5                                      5                                   0                                      15                                  1.9991411283044896e-18          6.1343883671504896e-21             1.2039155046807593                     1.2039155046807593                       1.2039155046807593             -2.511639830413368e-18      249.99999999999991       191.51111077974446        160.69690242163477        0                       1.3315445693066572e-17    14                           2                          4                    0.99972682993634543  0.02021382947987296  0.0091563572565558724
                 197975.68507366491                1.3191521900904259e-17             3.8244052157941472e-19              10                                   0                                       6                                      6                                   1                                      16                                  1.9991411283044896e-18          6.1343883671504896e-21             1.2039155046807593                     1.2039155046807593                       1.2039155046807593             -2.1291993088339521e-18      249.99999999999994       160.6969024216348         191.51111077974446        0                       1.3315445693066572e-17    15                           0                          5                    0.99972682993634543  0.02021382947987296  0.0091563572565558724
                 197319.55501065534                1.3187277296519408e-17            -4.2446043848508071e-21              11                                   0                                       6                                      6                                   0                                      17                                  1.9991366494127452e-18          6.465591792654432e-21             1.2311639035696644                     1.2311639035696644                       1.2311639035696644             -2.1306586916208736e-18      249.99999999999994       160.6969024216348         191.51111077974446        0                       1.3312333746934882e-17    16                           1                          5                    0.99972509694377065  0.020234726467343454  0.0091349292212309415
                 192723.45960083816                1.3157985606486413e-17            -2.9291690032995027e-20              12                                   0                                       6                                      6                                   0                                      18                                  1.9991023043328885e-18          9.0568812721928492e-21             1.4218990250780517                     1.4218990250780517                       1.4218990250780517             -2.1408518723649443e-18      249.99999999999994       160.6969024216348         191.51111077974446        0                       1.3290678293246276e-17    17                           2                          5                    0.99971166179642268  0.020380972358626341  0.0089849214803503375
                 192723.45960083816                1.3603486736698727e-17             4.4550113021231378e-19              12                                   0                                       7                                      7                                   1                                      19                                  1.9991023043328885e-18          9.0568812721928492e-21             1.4218990250780517                     1.4218990250780517                       1.4218990250780517             -1.6953507421526315e-18      249.99999999999994       125                       216.50635094610959        0                       1.3290678293246276e-17    18                           0                          6                    0.99971166179642268  0.020380972358626341  0.0089849214803503375
                 192081.17092134926                1.3598928470461197e-17            -4.558266237529155e-21              13                                   0                                       7                                      7                                   0                                      20                                  1.9990963687916909e-18          9.4698084079583752e-21             1.4482953086196557                     1.4482953086196557                       1.4482953086196557             -1.697253139820736e-18      249.99999999999994       125                       216.50635094610959        0                       1.3287615433082285e-17    19                           1                          6                    0.99970941854441364  0.020406082913093739  0.0089633897358933744
                 187582.15331790954                1.3567465903256719e-17            -3.1462567204478768e-20              14                                   0                                       7                                      7                                   0                                      21                                  1.9990512410565621e-18          1.264857198465776e-20             1.6330658082194582                     1.6330658082194582                       1.6330658082194582             -1.7105462216718075e-18      249.99999999999994       125                       216.50635094610959        0                       1.3266312311887307e-17    20                           2                          6                    0.99969227731498844  0.020581815761110411  0.0088126551799273152
# Table End
