# ODT 1.0
# Table Start
# Title: mmArchive Data Table, Wed Jun 11 15:40:47 EDT 2014
# Columns: {Oxs_CGEvolve:evolve:Max mxHxm} {Oxs_CGEvolve:evolve:Total energy} {Oxs_CGEvolve:evolve:Delta E} {Oxs_CGEvolve:evolve:Bracket count} {Oxs_CGEvolve:evolve:Line min count} {Oxs_CGEvolve:evolve:Conjugate cycle count} {Oxs_CGEvolve:evolve:Cycle count} {Oxs_CGEvolve:evolve:Cycle sub count} {Oxs_CGEvolve:evolve:Energy calc count} Oxs_UniaxialAnisotropy::Energy Oxs_UniformExchange::Energy {Oxs_UniformExchange::Max Spin Ang} {Oxs_UniformExchange::Stage Max Spin Ang} {Oxs_UniformExchange::Run Max Spin Ang} Oxs_StageZeeman::Energy {Oxs_StageZeeman::B max} {Oxs_StageZeeman::Bx max} {Oxs_StageZeeman::By max} {Oxs_StageZeeman::Bz max} Oxs_Demag::Energy    Oxs_MinDriver::Iteration {Oxs_MinDriver::Stage iteration} Oxs_MinDriver::Stage Oxs_MinDriver::mx    Oxs_MinDriver::my    Oxs_MinDriver::mz   
# Units:                 A/m                               J                                J                               {}                                   {}                                      {}                                     {}                                  {}                                     {}                                  J                             J                              deg                                    deg                                      deg                              J                       mT                       mT                        mT                        mT                     J                       {}                           {}                         {}                 {}                   {}                   {}           
                 224618.99953913115               -1.6548552088460224e-17            -1.6548552088460224e-17              0                                    0                                       1                                      1                                   0                                      1                                   1.9992003998001003e-18          0                               0                                      0                                        0                              -3.1992002998750553e-17      100                      100                       0                         0                       1.3444250510490225e-17    0                            0                          0                    0.99975009371095458  0.019995001874219091  0.0099975009371095457
                 223825.92682316052               -1.6551894524001521e-17            -3.3424355412954309e-21              1                                    0                                       1                                      1                                   0                                      2                                   1.9992012526056475e-18          3.783398668584097e-24             0.032351910759522012                    0.032351910759522012                      0.032351910759522012            -3.1992017026006753e-17      100                      100                       0                         0                       1.3440917466000914e-17    1                            1                          0                    0.99975053206271081  0.019984085845589791  0.0099738798463941975
                 141527.9821673806                -1.6975579159320891e-17            -4.2368463531936948e-19              2                                    0                                       1                                      1                                   0                                      3                                   1.9985611874554554e-18          1.5174328540833294e-19             6.4589455686109352                     6.4589455686109352                       6.4589455686109352             -3.1974065609983429e-17      100                      100                       0                         0                       1.2848181977798752e-17    2                            2                          0                    0.99918955031198209  0.017776381262069697  0.0052217717083240548
                 271576.40851601929               -1.706550653389046e-17            -8.9927374569569796e-20              3                                    0                                       2                                      2                                   0                                      4                                   1.9965528444792897e-18          2.2633150312865377e-19             11.760738946316874                     11.760738946316874                       11.760738946316874             -3.1953788125634709e-17      100                      100                       0                         0                       1.2665397244136305e-17    3                            3                          0                    0.99855587892608455  0.01551240695676156  0.0022508410698109994
                 224586.32564867893               -1.7068992892094884e-17            -3.4863582044238755e-21              3                                    1                                       2                                      2                                   0                                      5                                   1.9969816777522779e-18          1.9868232249870534e-19             10.723036373272743                     11.760738946316874                       11.760738946316874             -3.1958233070034129e-17      100                      100                       0                         0                       1.2693576177688262e-17    4                            4                          0                    0.99869478343856644  0.015880021626982162  0.0027325489028185873
                 236999.44475654635               -1.6671716700140285e-17             3.9727619195459938e-19              3                                    1                                       3                                      3                                   0                                      6                                   1.9969816777522779e-18          1.9868232249870534e-19             10.723036373272743                     10.723036373272743                       11.760738946316874             -3.156095687807953e-17      100                      98.480775301220802        17.364817766693033        0                       1.2693576177688262e-17    5                            0                          1                    0.99869478343856644  0.015880021626982162  0.0027325489028185873
                 162425.74506294084               -1.6751147401676288e-17            -7.9430701536004322e-20              4                                    2                                       3                                      3                                   0                                      8                                   1.9960002863282117e-18          1.9337959717594283e-19             6.6605443387184815                     10.723036373272743                       11.760738946316874             -3.1573136384386064e-17      100                      98.480775301220802        17.364817766693033        0                       1.2632609099205618e-17    6                            1                          1                    0.9984527138858289   0.019444709449796281  0.0022856550533026571
                 127946.65753385449               -1.6835148477202123e-17            -8.4001075525833618e-20              5                                    2                                       3                                      4                                   1                                      9                                   1.9937974986394744e-18          2.1428883496169094e-19             7.2824994393675491                     10.723036373272743                       11.760738946316874             -3.1592014365081479e-17      100                      98.480775301220802        17.364817766693033        0                       1.254877955427819e-17    7                            2                          1                    0.99789078508347528  0.026028877238320831  0.0015359983123516717
                 400282.66446042596               -1.6886848810395406e-17            -5.1700333193284233e-20              6                                    2                                       3                                      4                                   1                                      10                                  1.987642016191741e-18          3.5568322950277481e-19             8.5734269479887217                     10.723036373272743                       11.760738946316874             -3.1616612850422568e-17      100                      98.480775301220802        17.364817766693033        0                       1.2386438794332645e-17    8                            3                          1                    0.99626892995548311  0.039653656968265893 -2.1759306329291617e-05
                 343705.86965030566               -1.6889718807614003e-17            -2.8699972185950444e-21              6                                    3                                       3                                      4                                   1                                      11                                  1.9889487653282133e-18          3.1939825517049217e-19             8.3324105791277479                     10.723036373272743                       11.760738946316874             -3.1613497411084415e-17      100                      98.480775301220802        17.364817766693033        0                       1.2415431582971711e-17    9                            4                          1                    0.99661770485353118  0.037114996851621784  0.00026925145641571618
                 352065.56988003524               -1.5650889541751192e-17             1.2388292658628107e-18              6                                    3                                       4                                      5                                   0                                      12                                  1.9889487653282133e-18          3.1939825517049217e-19             8.3324105791277479                     8.3324105791277479                       11.760738946316874             -3.0374668145221604e-17      100.00000000000001       93.969262078590845        34.202014332566876        0                       1.2415431582971711e-17    10                           0                          2                    0.99661770485353118  0.037114996851621784  0.00026925145641571618
                 180896.54364272318               -1.5786628275624106e-17            -1.3573873387291412e-19              7                                    4                                       4                                      5                                   0                                      14                                  1.9873615346466706e-18          2.4499755841369982e-19             6.8792617368067077                     8.3324105791277479                       11.760738946316874             -3.0423822448836262e-17      100.00000000000001       93.969262078590845        34.202014332566876        0                       1.2404835080151789e-17    11                           1                          2                    0.99626666180028967  0.042570653751018393  0.00026218441815465532
                 160324.63651716616               -1.5894936464734375e-17            -1.0830818911026885e-19              8                                    4                                       4                                      6                                   1                                      15                                  1.9841707132660766e-18          2.4149924478992723e-19             8.8192271791792614                     8.8192271791792614                       11.760738946316874             -3.0504074670636677e-17      100.00000000000001       93.969262078590845        34.202014332566876        0                       1.2383468247846301e-17    12                           2                          2                    0.99546601225376308  0.052102976526712683  0.00024596023517109422
                 400322.79169790883               -1.5915206461754588e-17            -2.026999702021223e-20              9                                    4                                       4                                      6                                   1                                      16                                  1.9786140203552866e-18          3.5864615063611418e-19             12.613410938430063                     12.613410938430063                       12.613410938430063             -3.0613233711314209e-17      100.00000000000001       93.969262078590845        34.202014332566876        0                       1.2360767078568225e-17    13                           3                          2                    0.99400649628448146  0.066086703803477254  0.00022197456273110973
                 278444.05166514119               -1.5926920676740327e-17            -1.1714214985741934e-20              9                                    5                                       4                                      6                                   1                                      17                                  1.9808306316263158e-18          2.9742276547885657e-19             10.839641995533563                     12.613410938430063                       12.613410938430063             -3.0573261642567886e-17      100.00000000000001       93.969262078590845        34.202014332566876        0                       1.2368087568722382e-17    14                           4                          2                    0.99459665093531568  0.06081306377369481  0.00023102511269118656
                 280493.31780815515               -1.3889738973876596e-17             2.0371817028637335e-18              9                                    5                                       5                                      7                                   0                                      18                                  1.9808306316263158e-18          2.9742276547885657e-19             10.839641995533563                     10.839641995533563                       12.613410938430063             -2.8536079939704151e-17      100.00000000000001       86.602540378443877        50                        0                       1.2368087568722382e-17    15                           0                          3                    0.99459665093531568  0.06081306377369481  0.00023102511269118656
                 436865.25265374838               -1.4052816715095589e-17            -1.6307774121899354e-19              10                                   6                                       5                                      7                                   0                                      20                                  1.9779423614330819e-18          2.7912468824870233e-19             9.8982012372689692                     10.839641995533563                       12.613410938430063             -2.8644254404398393e-17      100.00000000000001       86.602540378443877        50                        0                       1.2334370639621021e-17    16                           1                          3                    0.99387871823778495  0.068817463725623224  0.00021526427358860262
                 196594.39434198421               -1.4274225489078966e-17            -2.2140877398337747e-19              11                                   6                                       5                                      8                                   1                                      21                                  1.9703792511399788e-18          3.38375882747473e-19             8.7302203645500125                     10.839641995533563                       12.613410938430063             -2.8877425145320433e-17      100.00000000000001       86.602540378443877        50                        0                       1.2294444522354014e-17    17                           2                          3                    0.99190294662114709  0.086812771857419757  0.00018076393709327008
                 388162.18420472537               -1.4296767039433519e-17            -2.2541550354553388e-20              12                                   7                                       5                                      8                                   1                                      23                                  1.9666194358539004e-18          4.2896321276737012e-19             10.411341145359529                     10.839641995533563                       12.613410938430063             -2.8975095796466393e-17      100.00000000000001       86.602540378443877        50                        0                       1.2282746108411602e-17    18                           3                          3                    0.9908891828049603   0.094673077990552842  0.00016558702146573728
                 473872.67001581768               -1.4973923884223563e-17            -6.77156844790045e-19              13                                   7                                       5                                      9                                   2                                      24                                  1.9264218617971755e-18          5.5013399794301267e-19             10.439939255555313                     10.839641995533563                       12.613410938430063             -2.9700323980397216e-17      100.00000000000001       86.602540378443877        50                        0                       1.2249844236433463e-17    19                           4                          3                    0.98041631359882286  0.15813938105228281  4.850058337096586e-05
                 482868.24893616984               -1.2559760022849624e-17             2.41416386137394e-18              13                                   7                                       6                                      10                                  0                                      25                                  1.9264218617971755e-18          5.5013399794301267e-19             10.439939255555313                     10.439939255555313                       12.613410938430063             -2.7286160119023275e-17      100                      76.604444311897808        64.278760968653927        0                       1.2249844236433463e-17    20                           0                          4                    0.98041631359882286  0.15813938105228281  4.850058337096586e-05
                 1023646.9336150109               -1.2610538544741616e-17            -5.0778521891991235e-20              14                                   7                                       6                                      10                                  0                                      26                                  1.9180990487922922e-18          6.4942050025691327e-19             12.800810120373571                     12.800810120373571                       12.800810120373571             -2.7465864471420538e-17      100                      76.604444311897808        64.278760968653927        0                       1.2287806377629717e-17    21                           1                          4                    0.9782691010774669   0.16943490250163901  4.4159461529560482e-05
                 352306.06773233053               -1.2800854367537189e-17            -1.903158227955743e-19              14                                   8                                       6                                      10                                  0                                      27                                  1.922103176464204e-18          3.9929953923248182e-19             7.6953894235711227                     12.800810120373571                       12.800810120373571             -2.7383855865749205e-17      100                      76.604444311897808        64.278760968653927        0                       1.2261598782515329e-17    22                           2                          4                    0.979378639090974    0.16412564590509415  4.6221461223115279e-05
                 183562.37837713628               -1.2975872539283066e-17            -1.7501817174587646e-19              15                                   8                                       6                                      11                                  1                                      28                                  1.9140341055810988e-18          3.7198689962429034e-19             8.908311769239381                      12.800810120373571                       12.800810120373571             -2.7549902307710395e-17      100                      76.604444311897808        64.278760968653927        0                       1.228800876322194e-17    23                           3                          4                    0.97727203362095949  0.17470877573355062  4.0964679927727777e-05
                 270453.26675331884               -1.2994635831152082e-17            -1.8763291869015923e-20              16                                   9                                       6                                      11                                  1                                      30                                  1.9102291650294924e-18          4.1478669930249207e-19             9.872443821702463                      12.800810120373571                       12.800810120373571             -2.7622909505742555e-17      100                      76.604444311897808        64.278760968653927        0                       1.2303257810258487e-17    24                           4                          4                    0.97624754091777044  0.17947906351537984  3.8579274685257e-05
                 273484.83841278858               -9.8520067270431483e-18             3.1426291041089344e-18              16                                   9                                       7                                      12                                  0                                      31                                  1.9102291650294924e-18          4.1478669930249207e-19             9.872443821702463                      9.872443821702463                        12.800810120373571             -2.448028040163362e-17      100                      64.278760968653941        76.604444311897808        0                       1.2303257810258487e-17    25                           0                          5                    0.97624754091777044  0.17947906351537984  3.8579274685257e-05
                 828197.53992403822               -9.9571015228619956e-18            -1.0509479581884757e-19              17                                   9                                       7                                      12                                  0                                      32                                  1.8960518119043438e-18          6.5819928970023921e-19             12.270080849230283                     12.270080849230283                       12.800810120373571             -2.4824502867488195e-17      100                      64.278760968653941        76.604444311897808        0                       1.2313150243021618e-17    26                           1                          5                    0.97243483819707655  0.19672050458955564  2.9328446036110635e-05
                 398731.03919671971               -1.0057510137029993e-17            -1.0040861416799803e-19              17                                   10                                      7                                      12                                  0                                      33                                  1.9020254064955337e-18          4.2180561101679237e-19             7.5178850901345946                     12.270080849230283                       12.800810120373571             -2.4685000410297574e-17      100                      64.278760968653941        76.604444311897808        0                       1.2303659255755254e-17    27                           2                          5                    0.97409250881098863  0.18963869364829605  3.3170789649095267e-05
                 283682.02146601892               -1.0477736238944913e-17            -4.2022610191491953e-19              18                                   10                                      7                                      13                                  1                                      34                                  1.877900490128435e-18          5.1817157779359541e-19             9.252908048724775                      12.270080849230283                       12.800810120373571             -2.5219017247253657e-17      100                      64.278760968653941        76.604444311897808        0                       1.2345208940386713e-17    28                           3                          5                    0.96759684352327247  0.21687387498261468  2.0148379535991049e-05
                 675623.09865986649               -1.0526445073645262e-17            -4.8708834700349535e-20              19                                   10                                      7                                      13                                  1                                      35                                  1.8524486603238226e-18          9.0514371920663885e-19             13.482672424768925                     13.482672424768925                       13.482672424768925             -2.5700136410587728e-17      100                      64.278760968653941        76.604444311897808        0                       1.2416098957412002e-17    29                           4                          5                    0.96051614789656092  0.24244204853564633  7.5936225050994012e-06
                 673752.73441480775               -6.9133181646796233e-18             3.6131269089656391e-18              19                                   10                                      8                                      14                                  0                                      36                                  1.8524486603238226e-18          9.0514371920663885e-19             13.482672424768925                     13.482672424768925                       13.482672424768925             -2.2087009501622086e-17      100                      50.000000000000014        86.602540378443862        0                       1.2416098957412002e-17    30                           0                          6                    0.96051614789656092  0.24244204853564633  7.5936225050994012e-06
                 733317.85419012757               -7.4081225389522294e-18            -4.9480437427260644e-19              20                                   10                                      8                                      14                                  0                                      37                                  1.8409656232674955e-18          6.5019877123219449e-19             11.379162448094734                     13.482672424768925                       13.482672424768925             -2.2345787959509572e-17      100                      50.000000000000014        86.602540378443862        0                       1.2446501026057652e-17    31                           1                          6                    0.95766326275268143  0.25342702581154569  1.0332583329273011e-05
                 446956.30006505083               -7.4758161970402099e-18            -6.7693658087980981e-20              20                                   11                                      8                                      14                                  0                                      38                                  1.843934285756797e-18          5.3236182704587259e-19             7.5365838211855385                     13.482672424768925                       13.482672424768925             -2.2281303140873658e-17      100                      50.000000000000014        86.602540378443862        0                       1.2429190831030776e-17    32                           2                          6                    0.95848330165584783  0.25062668066767596  9.6268022631149806e-06
                 264845.02056911978               -7.7858616537795286e-18            -3.1004545673931874e-19              21                                   11                                      8                                      15                                  1                                      39                                  1.8281173962549301e-18          5.0121437482240113e-19             11.004477640755429                     13.482672424768925                       13.482672424768925             -2.261578302961199e-17      100                      50.000000000000014        86.602540378443862        0                       1.250058960475513e-17    33                           3                          6                    0.95419213341746478  0.26517369116784395  1.13647280491992e-05