# ODT 1.0
# Table Start
# Title: mmArchive Data Table, Wed Jun 11 15:40:42 EDT 2014
# Columns: {Oxs_RungeKuttaEvolve:evolve:Total energy} {Oxs_RungeKuttaEvolve:evolve:Energy calc count} {Oxs_RungeKuttaEvolve:evolve:Max dm/dt} Oxs_RungeKuttaEvolve:evolve:dE/dt {Oxs_RungeKuttaEvolve:evolve:Delta E} Oxs_CubicAnisotropy::Energy Oxs_UniformExchange::Energy {Oxs_UniformExchange::Max Spin Ang} {Oxs_UniformExchange::Stage Max Spin Ang} {Oxs_UniformExchange::Run Max Spin Ang} Oxs_TransformZeeman:Rotating:Energy Oxs_Demag::Energy    Oxs_TimeDriver::Iteration {Oxs_TimeDriver::Stage iteration} Oxs_TimeDriver::Stage Oxs_TimeDriver::mx   Oxs_TimeDriver::my   Oxs_TimeDriver::mz   {Oxs_TimeDriver::Last time step} {Oxs_TimeDriver::Simulation time}
# Units:                       J                                            {}                                        deg/ns                                 J/s                                  J                                J                           J                              deg                                    deg                                      deg                                    J                          J                       {}                            {}                          {}                   {}                   {}                   {}                          s                                 s                
                       1.5842165109695707e-17                          1                                           4054.5040193875989                  -3.31626694065905e-08                 0                                0                           0                               0                                      0                                        0                                    -1.8552317739371528e-18          1.7697396883632859e-17    0                             0                           0                     1                    0                    0                          0                                0                         
                       1.5842087415848465e-17                          7                                           4055.1035453251388                  -3.3155225399982977e-08                -7.7693847242267181e-23              9.0436717600858842e-27         2.9421100007251338e-25             0.0131074677318231                     0.0131074677318231                       0.0131074677318231                   -1.8552317737320351e-18          1.7697318886325828e-17    1                             1                           0                     0.99999999905795089  3.2875543980536394e-12 -3.2788098554634712e-11        2.3430732722358726e-15              2.3430732722358726e-15       
                       1.5841776815569536e-17                          13                                          4057.4874532507738                  -3.3125252699130256e-08                -3.1060027892802946e-22              2.2599191328233738e-25         7.3511263593159952e-24             0.065518506159927201                    0.065518506159927201                      0.065518506159927201                  -1.8552317688093027e-18          1.7697001007260567e-17    2                             2                           0                     0.99999997645916672  8.3054056526053901e-11 -8.1961078649197007e-10        9.3722930889434905e-15              1.1715366361179364e-14       
                       1.5840537267569672e-17                          19                                          4066.7969525665249                  -3.3002238282440572e-08                -1.2395479998636937e-21              3.9792523773979892e-24         1.293727572981695e-22             0.27485110529828127                    0.27485110529828127                      0.27485110529828127                  -1.8552316834882804e-18          1.7695635599048279e-17    3                             3                           0                     0.99999958549175738  1.5260953445473636e-09 -1.4451454938434487e-08        3.7489172355773962e-14              4.9204538716953329e-14       
                       1.5835627933863943e-17                          25                                          4100.4839549063818                  -3.24618071174191e-08                -4.909333705729715e-21              6.4667318174387548e-23         2.0976490318081669e-21             1.1065483433821366                     1.1065483433821366                       1.1065483433821366                   -1.8552302925651304e-18          1.7688695910079091e-17    4                             4                           0                     0.9999932630865479   2.8994307608606791e-08 -2.3633398705873147e-07        1.4995668942309585e-13              1.9916122814004918e-13       
                       1.5835627933863943e-17                          26                                          4100.4839549063818                  -3.24618071174191e-08                 0                                6.4667318174387548e-23         2.0976490318081669e-21             1.1065483433821366                     1.1065483433821366                       1.1065483433821366                   -1.8552302925651304e-18          1.7688695910079091e-17    5                             0                           1                     0.9999932630865479   2.8994307608606791e-08 -2.3633398705873147e-07        0                                1.9916122814004918e-13       
                       1.581695328687138e-17                          32                                          4183.3896166815211                  -2.9655526688994965e-08                -1.8674646992564201e-20              9.9491462987325941e-22         3.1839861214618216e-20             4.3037894763200981                     4.3037894763200981                       4.3037894763200981                   -1.8552079755639749e-18          1.7639326486590864e-17    6                             1                           1                     0.99989619097378735  7.2179351746116169e-07 -3.7753977232535536e-06        5.9982675769238339e-13              7.9898798583243262e-13       
                       1.5774474721815388e-17                          38                                          4127.0796778225622                  -2.0563785779269123e-08                -4.2478565055990368e-20              7.8420828167732946e-21         2.3144909143806664e-19             11.443254594147557                     11.443254594147557                       11.443254594147557                   -1.8549997364909734e-18          1.7390183284051521e-17    7                             2                           1                     0.99917239558529036  1.4078244830234048e-05 -3.6295780315454691e-05        1.7072335945725635e-12              2.5062215804049959e-12       
                       1.5740512183703118e-17                          44                                          3927.1918601286211                  -1.810229326501139e-08                -3.3962538112269524e-20              1.6973740663874457e-20         4.206692938711922e-19             15.02287686976849                      15.02287686976849                        15.02287686976849                    -1.8545440531094843e-18          1.7157413202277537e-17    8                             3                           1                     0.99817310828342931  6.3971282161308818e-05 -0.00010602593998151689        1.8387257525613306e-12              4.3449473329663269e-12       
                       1.5701896993459072e-17                          50                                          3792.9801191765391                  -2.2364698343356225e-08                -3.8615190244048687e-20              2.5619918232053447e-20         4.6934824876052042e-19             15.408657681538008                     15.408657681538008                       15.408657681538008                   -1.8538236544442421e-18          1.7060752480910737e-17    9                             4                           1                     0.99716842943017137  0.00017809888067501031 -0.00021340231252283315        1.9261346882753973e-12              6.2710820212417234e-12       
                       1.5701896993459072e-17                          51                                          3792.9801191765391                  -2.2364698343356225e-08                 0                                2.5619918232053447e-20         4.6934824876052042e-19             15.408657681538008                     15.408657681538008                       15.408657681538008                   -1.8538236544442421e-18          1.7060752480910737e-17    10                            0                           2                     0.99716842943017137  0.00017809888067501031 -0.00021340231252283315        0                                6.2710820212417234e-12       
                       1.5657376947836115e-17                          57                                          3430.02724324566                    -2.3941938903617058e-08                -4.4520045622954095e-20              3.5652699850750692e-20         4.4455026893397343e-19             14.459487627463965                     15.408657681538008                       15.408657681538008                   -1.8528927073531753e-18          1.7030066686404567e-17    11                            1                           2                     0.99596767500912031  0.00037137505189208228 -0.00034752047469448205        1.8890686731026062e-12              8.1601506943443308e-12       
                       1.5612408059824211e-17                          63                                          3213.4917530826101                  -2.2449699915725333e-08                -4.4968888011905496e-20              4.9868839891331885e-20         4.0129569746007971e-19             12.672932411543361                     15.408657681538008                       15.408657681538008                   -1.8517247445382416e-18          1.7012968267011042e-17    12                            2                           2                     0.99424766008412258  0.00067098727334725624 -0.00050857104482525785        1.9429900101380286e-12              1.0103140704482359e-11       
                       1.5564428112987893e-17                          69                                          3981.3788456447614                  -2.4582438217449268e-08                -4.797994683631817e-20              7.0007145106070861e-20         3.3596755871625291e-19             10.450910475193602                     15.408657681538008                       15.408657681538008                   -1.8502625283001923e-18          1.700871593746576e-17    13                            3                           2                     0.99171721013227099  0.0011194403842071526 -0.00069837253785899091        2.0833755196655863e-12              1.2186516224147944e-11       
                       1.5505494552961457e-17                          75                                          4294.3978158408436                  -2.95243785329073e-08                -5.893356002643567e-20              9.7639126552506854e-20         3.3201649996257786e-19             10.955663496036365                     15.408657681538008                       15.408657681538008                   -1.8485393736162013e-18          1.6924378300062573e-17    14                            4                           2                     0.98796601948943352  0.0017349152959195593 -0.00090372377296165697        2.1719817754555229e-12              1.4358497999603467e-11       
                       1.5505494552961457e-17                          76                                          4294.3978158408436                  -2.95243785329073e-08                 0                                9.7639126552506854e-20         3.3201649996257786e-19             10.955663496036365                     10.955663496036365                       15.408657681538008                   -1.8485393736162013e-18          1.6924378300062573e-17    15                            0                           3                     0.98796601948943352  0.0017349152959195593 -0.00090372377296165697        0                                1.4358497999603467e-11       
                       1.5436555123019668e-17                          82                                          4076.1023155637154                  -3.1197596101418705e-08                -6.8939429941789184e-20              1.3334413174157128e-19         4.9715324317683912e-19             11.917195986303764                     11.917195986303764                       15.408657681538008                   -1.8465718430082755e-18          1.6652629591109534e-17    16                            1                           3                     0.98249673617367772  0.0025306670241969547 -0.0011111844132842381        2.2497739515838128e-12              1.6608271951187279e-11       
                       1.5364240708847254e-17                          88                                          3987.7123234526957                  -3.2741203235276031e-08                -7.2314414172411965e-20              1.72616804503841e-19         7.6316129945323953e-19             13.092130004717466                     13.092130004717466                       15.408657681538008                   -1.8444030321097728e-18          1.6272865636999948e-17    17                            2                           3                     0.97539948252594388  0.0034916071667952251 -0.0013024801553914889        2.2832563951009639e-12              1.8891528346288244e-11       
                       1.5293212779283747e-17                          100                                         4535.7034378747176                  -3.7151523067310463e-08                -7.1027929563508161e-20              2.0621749012991267e-19         9.8180686259702922e-19             14.189056257992915                     14.189056257992915                       15.408657681538008                   -1.8423212489174805e-18          1.5947509675474285e-17    18                            3                           3                     0.96791620393650313  0.004465325088560743 -0.0014466410039753507        2.0424720800577848e-12              2.093400042634603e-11       
                       1.5218637652705456e-17                          106                                         4663.3545644427377                  -4.1264582883239938e-08                -7.4575126578291845e-20              2.3409700562827858e-19         1.1617155439764776e-18             15.182098389203572                     15.182098389203572                       15.408657681538008                   -1.8402725209473952e-18          1.5663097624048095e-17    19                            4                           3                     0.95996664190970549  0.0054478357170240146 -0.0015509322223783793        1.8965864555835875e-12              2.2830586881929616e-11       
                       1.5218637652705456e-17                          107                                         4663.3545644427377                  -4.1264582883239938e-08                 0                                2.3409700562827858e-19         1.1617155439764776e-18             15.182098389203572                     15.182098389203572                       15.408657681538008                   -1.8402725209473952e-18          1.5663097624048095e-17    20                            0                           4                     0.95996664190970549  0.0054478357170240146 -0.0015509322223783793        0                                2.2830586881929616e-11       
                       1.5140069167088419e-17                          113                                         4296.9255051744194                  -4.3791441873824331e-08                -7.8568485617036169e-20              2.5716998547613009e-19         1.3381772066256197e-18             16.481589966254759                     16.481589966254759                       16.481589966254759                   -1.8381736807563794e-18          1.5382895655743049e-17    21                            1                           4                     0.95127470359025867  0.006456980022375206 -0.0016215830137634479        1.8434524885576054e-12              2.4674039370487223e-11       
                       1.5058501878220127e-17                          119                                         4277.138669284901                   -4.5691468077722412e-08                -8.1567288868291183e-20              2.7558825838193833e-19         1.5289773537155226e-18             17.411193355757728                     17.411193355757728                       17.411193355757728                   -1.8359845865375143e-18          1.5089920852660183e-17    22                            2                           4                     0.94184323259106206  0.0074896659100799528 -0.0016611618697141459        1.8224668322603724e-12              2.6496506202747595e-11       
                       1.497461344332597e-17                          125                                         4552.5845840711063                  -4.6954995053788671e-08                -8.388843489415971e-20              2.8941400907326482e-19         1.7518449793486559e-18             18.230931621116742                     18.230931621116742                       18.230931621116742                   -1.8336886133889182e-18          1.4767043068292965e-17    23                            3                           4                     0.93187078735435303  0.0085323494220995288 -0.0016726054560434081        1.807103876375766e-12              2.8303610079123359e-11       
                       1.4888106417552927e-17                          131                                         4533.7560998953713                  -4.6308251998362031e-08                -8.650702577304067e-20              2.9959369688595413e-19         2.0274107811468496e-18             19.591034051966531                     19.591034051966531                       19.591034051966531                   -1.8311972520881469e-18          1.439229919160827e-17    24                            4                           4                     0.92134367004444084  0.0096036851023806238 -0.0016593925433204171        1.8472888940217008e-12              3.0150898973145061e-11       
                       1.4888106417552927e-17                          132                                         4533.7560998953713                  -4.6308251998362031e-08                 0                                2.9959369688595413e-19         2.0274107811468496e-18             19.591034051966531                     19.591034051966531                       19.591034051966531                   -1.8311972520881469e-18          1.439229919160827e-17    25                            0                           5                     0.92134367004444084  0.0096036851023806238 -0.0016593925433204171        0                                3.0150898973145061e-11       
                       1.4804346861349401e-17                          138                                         4106.7501713364363                  -4.3510926810575287e-08                -8.3759556203527154e-20              3.0748817308320314e-19         2.3325026657422589e-18             20.340244078059474                     20.340244078059474                       20.340244078059474                   -1.8285239763245048e-18          1.3992879998848444e-17    26                            1                           5                     0.91084306608531085  0.010676219937463358 -0.0016250887004173055        1.859677872204693e-12              3.2010576845349755e-11       
                       1.4728173784350076e-17                          144                                         3452.4612385320079                  -3.9841591301260594e-08                -7.6173076999323752e-20              3.1499808831200851e-19         2.6093179071986316e-18             20.854716828649586                     20.854716828649586                       20.854716828649586                   -1.8257198827613212e-18          1.3629577671600758e-17    27                            2                           5                     0.90112317535544795  0.011714201734702773 -0.0015746500929181987        1.826560838184086e-12              3.3837137683533841e-11       
                       1.4654918306675305e-17                          150                                         3590.2383285874375                  -3.5693821703232668e-08                -7.3255477674773496e-20              3.2441756932960323e-19         2.8322096831343687e-18             23.456602910236573                     23.456602910236573                       23.456602910236573                   -1.8225356251359744e-18          1.3320826679347306e-17    28                            3                           5                     0.89194798690166766  0.012789479628469064 -0.0015056818118216707        1.9389506265418714e-12              3.5776088310075711e-11       
                       1.4588846691734625e-17                          156                                         3386.1375514199603                  -3.1233885255383438e-08                -6.607161494067892e-20              3.3659842873832829e-19         2.9679250830893343e-18             27.454729855008807                     27.454729855008807                       27.454729855008807                   -1.8190701102438267e-18          1.3103393290150789e-17    29                            4                           5                     0.88421492695386172  0.013845598066160784 -0.0014206534751296496        1.9739396194932694e-12              3.7750027929568979e-11       
                       1.4588846691734625e-17                          157                                         3386.1375514199603                  -3.1233885255383438e-08                 0                                3.3659842873832829e-19         2.9679250830893343e-18             27.454729855008807                     27.454729855008807                       27.454729855008807                   -1.8190701102438267e-18          1.3103393290150789e-17    30                            0                           6                     0.88421492695386172  0.013845598066160784 -0.0014206534751296496        0                                3.7750027929568979e-11       
                       1.4532795465360059e-17                          163                                         3216.4761139713578                  -2.6967105010776512e-08                -5.6051226374566683e-20              3.5155304822234973e-19         3.0192664662136975e-18             30.943733081531359                     30.943733081531359                       30.943733081531359                   -1.8154704231438923e-18          1.2977446374067903e-17    31                            1                           6                     0.87848338133973281  0.014829449382338962 -0.0013236231244842305        1.9285320051097786e-12              3.9678559934678757e-11       
                       1.4486028762913914e-17                          169                                         2884.8437284771962                  -2.3353551878004225e-08                -4.6766702446144759e-20              3.6871803258921856e-19         3.0078627253676427e-18             33.65696584188349                      33.65696584188349                        33.65696584188349                    -1.8118028916816261e-18          1.2921250896638679e-17    32                            2                           6                     0.87478218906695482  0.015725019106760902 -0.0012163572127915014        1.862806896476436e-12              4.1541366831155196e-11       
                       1.4446354974597026e-17                          175                                         2506.7636769543083                  -2.038622147217301e-08                -3.9673788316886743e-20              3.8721601335779441e-19         2.9520500446658564e-18             35.470740881529025                     35.470740881529025                       35.470740881529025                   -1.8080539834891961e-18          1.2915142900062571e-17    33                            3                           6                     0.87292705544639249  0.016537794957869539 -0.0010974750828618596        1.8182038041631237e-12              4.3359570635318322e-11       
                       1.4411882401105173e-17                          181                                         2312.7753787433194                  -1.8033112899887333e-08                -3.4472573491853417e-20              4.0599547328367259e-19         2.8588087085964641e-18             36.295325288918185                     36.295325288918185                       36.295325288918185                   -1.804184080159153e-18          1.2951262299384189e-17    34                            4                           6                     0.87274535294451128  0.017272732307074441 -0.00096398224538247427        1.8001534096608117e-12              4.5159724044979133e-11       
# Table End
