# ODT 1.0
# Table Start
# Title: mmArchive Data Table, Wed Aug 17 23:55:48 EDT 2011
# Columns: {Oxs_CGEvolve:evolve:Max mxHxm} {Oxs_CGEvolve:evolve:Total energy} {Oxs_CGEvolve:evolve:Delta E} {Oxs_CGEvolve:evolve:Bracket count} {Oxs_CGEvolve:evolve:Line min count} {Oxs_CGEvolve:evolve:Conjugate cycle count} {Oxs_CGEvolve:evolve:Cycle count} {Oxs_CGEvolve:evolve:Cycle sub count} {Oxs_CGEvolve:evolve:Energy calc count} Oxs_UniaxialAnisotropy::Energy Oxs_UniformExchange::Energy {Oxs_UniformExchange::Max Spin Ang} {Oxs_UniformExchange::Stage Max Spin Ang} {Oxs_UniformExchange::Run Max Spin Ang} Oxs_StageZeeman::Energy {Oxs_StageZeeman::B max} {Oxs_StageZeeman::Bx max} {Oxs_StageZeeman::By max} {Oxs_StageZeeman::Bz max} Oxs_Demag::Energy    Oxs_MinDriver::Iteration {Oxs_MinDriver::Stage iteration} Oxs_MinDriver::Stage Oxs_MinDriver::mx    Oxs_MinDriver::my    Oxs_MinDriver::mz   
# Units:                 A/m                               J                                J                               {}                                   {}                                      {}                                     {}                                  {}                                     {}                                  J                             J                              deg                                    deg                                      deg                              J                       mT                       mT                        mT                        mT                     J                       {}                           {}                         {}                 {}                   {}                   {}           
                 224618.99953916724               -1.6548552088539902e-17            -1.6548552088539902e-17              0                                    0                                       1                                      1                                   1                                      1                                   1.9992003998001003e-18          0                               0                                      0                                        0                              -3.1992002998752821e-17      100                      100                       0                         0                       1.3444250510410556e-17    0                            0                          0                    0.99975009371100365  0.019995001874219199  0.0099975009371095994
                 223825.92682319961               -1.6551894524081223e-17            -3.3424355413209645e-21              1                                    0                                       1                                      1                                   1                                      2                                   1.9992012526056475e-18          3.7833986685872627e-24             0.032351910763414662                    0.032351910763414662                      0.032351910763414662            -3.1992017026006741e-17      100                      100                       0                         0                       1.3440917465921216e-17    1                            1                          0                    0.9997505320627097   0.019984085845589788  0.0099738798463941836
                 218270.03551173201               -1.6574951153072882e-17            -2.3056628991658604e-20              2                                    0                                       1                                      1                                   1                                      3                                   1.9992060892426577e-18          2.4213078543597181e-22             0.25881044716983204                    0.25881044716983204                      0.25881044716983204            -3.1992086237777614e-17      100                      100                       0                         0                       1.3417686864676669e-17    2                            2                          0                    0.99975269493055019  0.019907655533263596  0.0098085233753237109
                 229211.12032673386               -1.6199541176652936e-17             3.7540997641994613e-19              2                                    0                                       2                                      2                                   2                                      4                                   1.9992060892426577e-18          2.4213078543597181e-22             0.25881044716983204                    0.25881044716983204                      0.25881044716983204            -3.1616676261357622e-17      100                      98.480775301220802        17.364817766693033        0                       1.3417686864676669e-17    3                            0                          1                    0.99975269493055019  0.019907655533263596  0.0098085233753237109
                 228477.36531882224               -1.6202805425404368e-17            -3.2642487514318831e-21              3                                    0                                       2                                      2                                   0                                      5                                   1.9992024079413692e-18          3.0216084470061269e-22             0.28856803387697183                    0.28856803387697183                      0.28856803387697183            -3.1616882483548266e-17      100                      98.480775301220802        17.364817766693033        0                       1.3414572489357822e-17    4                            1                          1                    0.99975182319428912  0.019949711466040607  0.0097858652880862523
                 223336.52875260075               -1.6225352090324021e-17            -2.2546664919653063e-20              4                                    0                                       2                                      2                                   0                                      6                                   1.9991753916292222e-18          9.0844366390512009e-22             0.49686708694258003                    0.49686708694258003                      0.49686708694258003            -3.1618298630720319e-17      100                      98.480775301220802        17.364817766693033        0                       1.3392862705103143e-17    5                            2                          1                    0.99974485453285389  0.020244084788126542  0.0096272503989106601
                 234342.65110748797               -1.4891109371729676e-17             1.3342427185943447e-18              4                                    0                                       3                                      3                                   1                                      7                                   1.9991753916292222e-18          9.0844366390512009e-22             0.49686708694258003                    0.49686708694258003                      0.49686708694258003            -3.0284055912126029e-17      100                      93.969262078590845        34.202014332566868        0                       1.3392862705103143e-17    6                            0                          2                    0.99974485453285389  0.020244084788126542  0.0096272503989106601
                 233665.16827131086               -1.4894852720939009e-17            -3.7433492093325057e-21              5                                    0                                       3                                      3                                   0                                      8                                   1.9991673881180031e-18          1.0143316277397584e-21             0.5242830201944545                     0.5242830201944545                       0.5242830201944545             -3.0284990074200729e-17      100                      93.969262078590845        34.202014332566868        0                       1.3389955633515947e-17    7                            1                          2                    0.9997427526822974   0.020335212924594868  0.0096056335757795253
                 228917.86432780497               -1.4920779092530889e-17            -2.5926371591880554e-20              6                                    0                                       3                                      3                                   0                                      9                                   1.9991094526384375e-18          1.9191855602680756e-21             0.71619096972311036                    0.71619096972311036                      0.71619096972311036            -3.0291499754176246e-17      100                      93.969262078590845        34.202014332566868        0                       1.3369692023446747e-17    8                            2                          2                    0.99972706819001655  0.020973087930346624  0.009454306704946602
                 239614.94310450749               -1.2670097958151918e-17             2.2506811343789715e-18              6                                    0                                       4                                      4                                   1                                      10                                  1.9991094526384375e-18          1.9191855602680756e-21             0.71619096972311036                    0.71619096972311036                      0.71619096972311036            -2.8040818619797401e-17      100                      86.602540378443877        49.999999999999993        0                       1.3369692023446747e-17    9                            0                          3                    0.99972706819001655  0.020973087930346624  0.009454306704946602
                 238989.44540703369               -1.2674751426741308e-17            -4.6534685893907333e-21              7                                    0                                       4                                      4                                   0                                      11                                  1.9990972317507528e-18          2.0623933310858697e-21             0.74153743987809695                    0.74153743987809695                      0.74153743987809695            -2.8042887559033789e-17      100                      86.602540378443877        49.999999999999993        0                       1.3366976507210651e-17    10                           1                          3                    0.99972378591281819  0.021108081703502386  0.0094337534258860257
                 234605.51531240367               -1.2707066005531308e-17            -3.2314578789999774e-20              8                                    0                                       4                                      4                                   0                                      12                                  1.9990087260913122e-18          3.2094609798168742e-21             0.91895928561075524                    0.91895928561075524                      0.91895928561075524            -2.805733695264931e-17      100                      86.602540378443877        49.999999999999993        0                       1.3348052760046842e-17    11                           2                          3                    0.99969962925336919  0.022053009365971887  0.0092898695868438384
                 244652.19523062411               -9.6094009554226706e-18             3.0976650501086375e-18              8                                    0                                       5                                      5                                   1                                      13                                  1.9990087260913122e-18          3.2094609798168742e-21             0.91895928561075524                    0.91895928561075524                      0.91895928561075524            -2.4959671902540706e-17      100                      76.604444311897808        64.278760968653927        0                       1.3348052760046842e-17    12                           0                          4                    0.99969962925336919  0.022053009365971887  0.0092898695868438384
                 244063.88471708767               -9.6152328060233608e-18            -5.8318506006901667e-21              9                                    0                                       5                                      5                                   0                                      14                                  1.9989923285380463e-18          3.3833047303575046e-21             0.94250907331863576                    0.94250907331863576                      0.94250907331863576            -2.496311888632377e-17      100                      76.604444311897808        64.278760968653927        0                       1.3345510447032048e-17    13                           1                          4                    0.99969519602010304  0.022225872525214949  0.0092703589077460027
                 239984.93191340295               -9.655808360738687e-18            -4.0575554715326154e-20              10                                   0                                       5                                      5                                   0                                      15                                  1.9988733347044714e-18          4.7290199235391226e-21             1.1073539808967765                     1.1073539808967765                       1.1073539808967765             -2.498721147703436e-17      100                      76.604444311897808        64.278760968653927        0                       1.332780076166767e-17    14                           2                          4                    0.99966271457585376  0.023435876697443157  0.0091337710042840702
                 249086.58740964145               -5.8053562407817082e-18             3.8504521199569787e-18              10                                   0                                       6                                      6                                   1                                      16                                  1.9988733347044714e-18          4.7290199235391226e-21             1.1073539808967765                     1.1073539808967765                       1.1073539808967765             -2.1136759357077334e-17      100.00000000000001       64.278760968653941        76.604444311897808        0                       1.332780076166767e-17    15                           0                          5                    0.99966271457585376  0.023435876697443157  0.0091337710042840702
                 248540.55070378599               -5.8124613509323521e-18            -7.1051101506438542e-21              11                                   0                                       6                                      6                                   0                                      17                                  1.9988527917289991e-18          4.9285413515580144e-21             1.1293706200070468                     1.1293706200070468                       1.1293706200070468             -2.114165432063678e-17      100.00000000000001       64.278760968653941        76.604444311897808        0                       1.3325411636623918e-17    16                           1                          5                    0.99965715320117376  0.02364022827962068  0.0091152487165378441
                 244711.88867041253               -5.8619602757415904e-18            -4.9498924809238364e-20              12                                   0                                       6                                      6                                   0                                      18                                  1.9987034942917754e-18          6.4411278902180408e-21             1.2834830931964589                     1.2834830931964589                       1.2834830931964589             -2.1175882216826106e-17      100.00000000000001       64.278760968653941        76.604444311897808        0                       1.3308777318902518e-17    17                           2                          5                    0.9996164902647463   0.025070640571579022  0.0089855772045047619
                 252485.66856528661               -1.3747198751237984e-18             4.4872404006177922e-18              12                                   0                                       7                                      7                                   1                                      19                                  1.9987034942917754e-18          6.4411278902180408e-21             1.2834830931964589                     1.2834830931964589                       1.2834830931964589             -1.6688641816208287e-17      100                      50.000000000000007        86.602540378443862        0                       1.3308777318902518e-17    18                           0                          6                    0.9996164902647463   0.025070640571579022  0.0089855772045047619
                 251976.68095925177               -1.3830320987820832e-18            -8.3122236582847924e-21              13                                   0                                       7                                      7                                   0                                      20                                  1.9986788731675983e-18          6.6629815732567346e-21             1.304222230906801                      1.304222230906801                        1.304222230906801              -1.6694893467684928e-17      100                      50.000000000000007        86.602540378443862        0                       1.3306519514162021e-17    19                           1                          6                    0.9996098283197945   0.025300073888723327  0.0089679586586313993
                 248406.78832185702               -1.4409919188885453e-18            -5.7959820106462119e-20              14                                   0                                       7                                      7                                   0                                      21                                  1.9984998438898663e-18          8.3217032711928679e-21             1.449391643481742                      1.449391643481742                        1.449391643481742              -1.673862134957064e-17      100                      50.000000000000007        86.602540378443862        0                       1.3290807883521026e-17    20                           2                          6                    0.99956119457749681  0.026906046616541977  0.0088446112117829632
# Table End
