# ODT 1.0
# Table Start
# Title: mmArchive Data Table, Wed Jun 11 15:40:41 EDT 2014
# Columns: {Oxs_RungeKuttaEvolve:evolve:Total energy} {Oxs_RungeKuttaEvolve:evolve:Energy calc count} {Oxs_RungeKuttaEvolve:evolve:Max dm/dt} Oxs_RungeKuttaEvolve:evolve:dE/dt {Oxs_RungeKuttaEvolve:evolve:Delta E} Oxs_CubicAnisotropy::Energy Oxs_UniformExchange::Energy {Oxs_UniformExchange::Max Spin Ang} {Oxs_UniformExchange::Stage Max Spin Ang} {Oxs_UniformExchange::Run Max Spin Ang} Oxs_ScriptUZeeman:rotating:Energy Oxs_ScriptUZeeman:rotating:B Oxs_ScriptUZeeman:rotating:Bx Oxs_ScriptUZeeman:rotating:By Oxs_ScriptUZeeman:rotating:Bz Oxs_Demag::Energy    Oxs_TimeDriver::Iteration {Oxs_TimeDriver::Stage iteration} Oxs_TimeDriver::Stage Oxs_TimeDriver::mx   Oxs_TimeDriver::my   Oxs_TimeDriver::mz   {Oxs_TimeDriver::Last time step} {Oxs_TimeDriver::Simulation time}
# Units:                       J                                            {}                                        deg/ns                                 J/s                                  J                                J                           J                              deg                                    deg                                      deg                                   J                              mT                           mT                            mT                            mT                       J                       {}                            {}                          {}                   {}                   {}                   {}                          s                                 s                
                       4.9473968836328571e-18                          1                                           4054.5040193875989                  -3.31626694065905e-08                 0                                0                           0                               0                                      0                                        0                                   -1.2750000000000002e-17             75.000000000000014           75.000000000000014            0                             0                         1.7697396883632859e-17    0                             0                           0                     1                    0                    0                          0                                0                         
                       4.9473191912043841e-18                          7                                           4055.1007200133927                  -3.3154014224168644e-08                -7.769242847281521e-23              9.0436440119682548e-27         2.9421009652683274e-25             0.013107447600469373                    0.013107447600469373                      0.013107447600469373                 -1.2749999986607224e-17             75.000000000000014           74.9999999918724              0.0011041472667919377           0                         1.7697318874557866e-17    1                             1                           0                     0.99999999905795378  2.2584444693955049e-11 -2.2533564328231322e-10        2.3430732722358726e-15              2.3430732722358726e-15       
                       4.9470086250093182e-18                          13                                          4057.4731123085462                  -3.3119188276895693e-08                -3.1056619506648061e-22              2.2598841023872092e-25         7.3510119645007386e-24             0.06551799617788219                    0.06551799617788219                      0.06551799617788219                 -1.2749999665317232e-17             75.000000000000014           74.999999796809817            0.0055207363291735149           0                         1.7697000713326174e-17    2                             2                           0                     0.99999997645953165  5.6964422422627946e-10 -5.6328465364547907e-09        9.3722930889434905e-15              1.1715366361179364e-14       
                       4.9457696701084531e-18                          19                                          4066.7332025126334                  -3.2976625892547714e-08                -1.2389549008650588e-21              3.9789826668782341e-24         1.2936385415287428e-22             0.27484163815927898                    0.27484163815927898                      0.27484163815927898                 -1.2749994106092625e-17             75.000000000000014           74.999996415724951            0.023187092234095302           0                         1.7695630433364258e-17    3                             3                           0                     0.99999958551985269  1.0403514979872184e-08 -9.9324881132290098e-08        3.7489172355773962e-14              4.9204538716953329e-14       
                       4.9408701533720347e-18                          25                                          4100.1745892020608                  -3.2355965380124578e-08                -4.8995167364179465e-21              6.4646796995769067e-23         2.0969477935867115e-21             1.1063628149700668                     1.1063628149700668                       1.1063628149700668                  -1.2749904152038805e-17             75.000000000000014           74.999941278040509            0.093852493186464769           0                         1.7688612710820255e-17    4                             4                           0                     0.99999326522468401  1.9366840568744953e-07 -1.6247078812981111e-06        1.4995668942309585e-13              1.9916122814004918e-13       
                       4.9408701533720347e-18                          26                                          4100.1745892020608                  -3.2355965380124578e-08                 0                                6.4646796995769067e-23         2.0969477935867115e-21             1.1063628149700668                     1.1063628149700668                       1.1063628149700668                  -1.2749904152038805e-17             75.000000000000014           74.999941278040509            0.093852493186464769           0                         1.7688612710820255e-17    5                             0                           1                     0.99999326522468401  1.9366840568744953e-07 -1.6247078812981111e-06        0                                1.9916122814004918e-13       
                       4.9223606500971616e-18                          32                                          4181.7304272289966                  -2.9206744000109855e-08                -1.8509503274873377e-20              9.9299074324220658e-22         3.1769358186044571e-20             4.2989898596598133                     4.2989898596598133                       4.2989898596598133                  -1.2748518646256748e-17             75                           74.999054915609207            0.37651263648738803           0                         1.7638116947424622e-17    6                             1                           1                     0.99989639210913039  4.6020746412270533e-06 -2.5976851452944056e-05        5.9982675769238339e-13              7.9898798583243262e-13       
                       4.8819363355995093e-18                          38                                          4131.448927794072                   -1.9421871818763685e-08                -4.0424314497652453e-20              7.6276655893070385e-21         2.2482990285207283e-19             11.281542945071436                     11.281542945071436                       11.281542945071436                  -1.2738210830749732e-17             75                           74.990899434636205            1.1683329937479574            0                         1.7387689597907863e-17    7                             2                           1                     0.99919530184571415  8.3494444017646148e-05 -0.00024494417353756055        1.6803919134492873e-12              2.4793798992817199e-12       
                       4.8508376570143521e-18                          44                                          3953.627957581873                   -1.6535401413876426e-08                -3.1098678585156709e-20              1.6405382067524098e-20         4.0440842271584623e-19             14.742845509077974                     14.742845509077974                       14.742845509077974                  -1.2722996590651e-17             75.000000000000014           74.972650432337375            2.0252622424130431            0                         1.7153020442881982e-17    8                             3                           1                     0.99823602314584314  0.00037328662843902328 -0.00071652538993914258        1.8188825420063554e-12              4.2982624412880757e-12       
                       4.8162786295673777e-18                          50                                          3847.7881942714312                  -2.0034298271926704e-08                -3.4559027446974803e-20              2.4699184023367671e-20         4.47065118478354e-19             15.061237047873044                     15.061237047873044                       15.061237047873044                  -1.2706145526708367e-17             75                           74.943077336740075            2.9214994950189985            0                         1.7050659853774024e-17    9                             4                           1                     0.99727725587780214  0.001028922521563373 -0.0014427585937006801        1.902920951405284e-12              6.2011833926933593e-12       
                       4.8162786295673777e-18                          51                                          3847.7881942714312                  -2.0034298271926704e-08                 0                                2.4699184023367671e-20         4.47065118478354e-19             15.061237047873044                     15.061237047873044                       15.061237047873044                  -1.2706145526708367e-17             75                           74.943077336740075            2.9214994950189985            0                         1.7050659853774024e-17    10                            0                           2                     0.99727725587780214  0.001028922521563373 -0.0014427585937006801        0                                6.2011833926933593e-12       
                       4.7778654682540852e-18                          57                                          3455.4629161999865                  -2.0279641380276204e-08                -3.8413161313292596e-20              3.4353141564615784e-20         4.205280725041539e-19             14.066068230173236                     15.061237047873044                       15.061237047873044                  -1.2685754581764229e-17             75.000000000000014           74.903672517152913            3.7999794003537657            0                         1.7008738835949545e-17    11                            1                           2                     0.99613260466267906  0.0021303725412525174 -0.0023522020917649158        1.866077412314904e-12              8.0672608050082633e-12       
                       4.7416333052592525e-18                          63                                          3287.5798271415401                  -1.7760372247193941e-08                -3.6232162994832248e-20              4.7749496586943466e-20         3.7276796130280325e-19             12.142013027020417                     15.061237047873044                       15.061237047873044                  -1.2658302227358477e-17             75                           74.852497008455416            4.7014563274769534            0                         1.6979418074727984e-17    12                            2                           2                     0.99452434013781377  0.0038224629028170004 -0.0034509497920694413        1.9160850140358334e-12              9.9833458190440967e-12       
                       4.7047419653244437e-18                          69                                          4033.9532684800024                  -1.9090249806792931e-08                -3.6891339934809334e-20              6.6371731079310263e-20         3.0472073181141865e-19             10.179273138618441                     15.061237047873044                       15.061237047873044                  -1.2620512075247233e-17             75.000000000000014           74.785632125532359            5.666500470708856             0                         1.6954161577680947e-17    13                            3                           2                     0.9922012368545392   0.0063371795815721317 -0.0047693479738080699        2.052811235291376e-12              1.2036157054335473e-11       
                       4.660077734164283e-18                          75                                          4255.2262218959486                  -2.2189662048084846e-08                -4.4664231160160138e-20              9.1723811634512278e-20         3.091995550166571e-19             10.608707589946754                     15.061237047873044                       15.061237047873044                  -1.2568156628374485e-17             75.000000000000014           74.702467769538956            6.6739275648598575            0                         1.6827310995887599e-17    14                            4                           2                     0.98878958920332072  0.009785945252442264 -0.0062512330840117335        2.1451148914251957e-12              1.4181271945760669e-11       
                       4.660077734164283e-18                          76                                          4255.2262218959486                  -2.2189662048084846e-08                 0                                9.1723811634512278e-20         3.091995550166571e-19             10.608707589946754                     10.608707589946754                       15.061237047873044                  -1.2568156628374485e-17             75.000000000000014           74.702467769538956            6.6739275648598575            0                         1.6827310995887599e-17    15                            0                           3                     0.98878958920332072  0.009785945252442264 -0.0062512330840117335        0                                1.4181271945760669e-11       
                       4.6109904164838456e-18                          82                                          3955.7711709081927                  -2.1543129472312792e-08                -4.9087317680437925e-20              1.2382456912927485e-19         4.7560811907607713e-19             11.452324556685946                     11.452324556685946                       15.061237047873044                  -1.2497440014703212e-17             75.000000000000014           74.602038917271727            7.7159438428410718            0                         1.6508997742981705e-17    16                            1                           3                     0.98394596955244484  0.014253280850902104 -0.0078334269481348025        2.2214915350181384e-12              1.6402763480778806e-11       
                       4.5628014493216735e-18                          88                                          3984.1059190546316                  -2.1555762661860307e-08                -4.8188967162172009e-20              1.585067864640797e-19         7.1481799722199167e-19             12.65589437330827                      12.65589437330827                        15.061237047873044                  -1.2411579140732157e-17             75                           74.484272033725262            8.7802744607451402            0                         1.610105580636776e-17    17                            2                           3                     0.97787061082995019  0.019738388937847115 -0.0094232999363447461        2.2723830267357519e-12              1.8675146507514558e-11       
                       4.5159522334717982e-18                          100                                         4515.6041000565692                  -2.4145547559700301e-08                -4.6849215849874997e-20              1.8807618316762433e-19         8.9620203223275864e-19             13.647459010632534                     13.647459010632534                       15.061237047873044                  -1.2325603590248469e-17             75.000000000000014           74.364610906938623            9.7419014909629755            0                         1.5757277608319886e-17    18                            3                           3                     0.97164135698042542  0.025438470935478186 -0.010766538567218943        2.0563885068473921e-12              2.0731535014361952e-11       
                       4.4682288928645951e-18                          106                                         4440.0487652882621                  -2.5512201008071008e-08                -4.7723340607202911e-20              2.1276703842064216e-19         1.0374329391783638e-18             14.316928748732376                     14.316928748732376                       15.061237047873044                  -1.2239052270585236e-17             75.000000000000014           74.242390424882629            10.633318578849122            0                         1.5457081185850828e-17    19                            4                           3                     0.96524222484636613  0.031272928295858628 -0.011876329493515378        1.9093546473115632e-12              2.2640889661673516e-11       
                       4.4682288928645951e-18                          107                                         4440.0487652882621                  -2.5512201008071008e-08                 0                                2.1276703842064216e-19         1.0374329391783638e-18             14.316928748732376                     14.316928748732376                       15.061237047873044                  -1.2239052270585236e-17             75.000000000000014           74.242390424882629            10.633318578849122            0                         1.5457081185850828e-17    20                            0                           4                     0.96524222484636613  0.031272928295858628 -0.011876329493515378        0                                2.2640889661673516e-11       
                       4.421241063908081e-18                          113                                         4056.7210458393461                  -2.5361342636871193e-08                -4.6987828956514702e-20              2.3391587672272865e-19         1.1673853761379964e-18             15.371575380249665                     15.371575380249665                       15.371575380249665                  -1.2149916496525461e-17             75                           74.114240209795184            11.492580133493911            0                         1.5169856307572816e-17    21                            1                           4                     0.95853897698113955  0.037303115834199846 -0.012777417125667295        1.8435872274467496e-12              2.4484476889120263e-11       
                       4.3754059995373338e-18                          119                                         4154.2297819548621                  -2.5078333476946007e-08                -4.5835064370746638e-20              2.522903886238349e-19         1.3021326006180861e-18             16.090302634095881                     16.090302634095881                       16.090302634095881                  -1.2058487829623838e-17             75.000000000000014           73.978125568293422            12.338433344708422            0                         1.487947083991925e-17    22                            2                           4                     0.95156905589466712  0.043521428681271616 -0.013464106371134058        1.8180580084902197e-12              2.6302534897610484e-11       
                       4.3310340935549674e-18                          125                                         4382.6107435489821                  -2.4257927492770898e-08                -4.437190598236705e-20              2.6809024228873976e-19         1.4609718161614601e-18             16.69146758043518                      16.69146758043518                        16.69146758043518                   -1.1967283791389642e-17             75.000000000000014           73.834546632418139            13.17041091178524             0                         1.4569255826494409e-17    23                            3                           4                     0.94454328045743474  0.049798151727810255 -0.01391331858998267        1.7916182971961364e-12              2.8094153194806621e-11       
                       4.2889473419007093e-18                          131                                         4207.2038609950978                  -2.1839961515550398e-08                -4.2086751654258134e-20              2.8223005291620589e-19         1.6553687728496571e-18             17.490711496257475                     17.490711496257475                       17.490711496257475                  -1.187677304785226e-17             75                           73.679505318015643            14.011798460315729            0                         1.4228121563987106e-17    24                            4                           4                     0.93751932613323441  0.056196261769907829 -0.014117207265905617        1.8155495491145666e-12              2.9909702743921187e-11       
                       4.2889473419007093e-18                          132                                         4207.2038609950978                  -2.1839961515550398e-08                 0                                2.8223005291620589e-19         1.6553687728496571e-18             17.490711496257475                     17.490711496257475                       17.490711496257475                  -1.187677304785226e-17             75                           73.679505318015643            14.011798460315729            0                         1.4228121563987106e-17    25                            0                           5                     0.93751932613323441  0.056196261769907829 -0.014117207265905617        0                                2.9909702743921187e-11       
                       4.2521018547610766e-18                          138                                         3659.4532351369216                  -1.8384076571883922e-08                -3.6845487139632126e-20              2.9555393710818818e-19         1.8559409997534489e-18             18.124294867008359                     18.124294867008359                       18.124294867008359                  -1.1791560647777937e-17             75.000000000000014           73.513515534530868            14.858096572384058            0                         1.3892167565677376e-17    26                            1                           5                     0.93087996667263784  0.062582886186984502 -0.014067558728757295        1.8301281257364154e-12              3.1739830869657601e-11       
                       4.2217015087799414e-18                          144                                         3401.4349919686638                  -1.5112409908694201e-08                -3.0400345981135486e-20              3.0864435002368469e-19         2.0146616039657144e-18             18.027751961178964                     18.124294867008359                       18.124294867008359                  -1.1717000961908142e-17             75.000000000000014           73.338874122971632            15.69743744612235             0                         1.3615396516698685e-17    27                            2                           5                     0.92507246744718741  0.068785865783371772 -0.013797676347273202        1.8192934375331377e-12              3.3559124307190739e-11       
                       4.1956211253553257e-18                          150                                         3453.0756376515433                  -1.1916105821022722e-08                -2.6080383424615628e-20              3.2252617085292677e-19         2.1112051109871656e-18             20.737525718333689                     20.737525718333689                       20.737525718333689                  -1.1652276288030729e-17             75.000000000000014           73.142993932331137            16.58621230465145             0                         1.3414166131545963e-17    28                            3                           5                     0.92006733367365778  0.075142067831872411 -0.013346471806219609        1.9313131122648084e-12              3.5490437419455545e-11       
                       4.1754634762621476e-18                          156                                         3337.0062676311677                  -8.7377314722196907e-09                -2.0157649093177792e-20              3.3646305955065402e-19         2.135327427892549e-18             23.443125710769298                     23.443125710769298                       23.443125710769298                  -1.1603861841926621e-17             75.000000000000014           72.933671765263867            17.483693054865569            0                         1.3307534830745566e-17    29                            4                           5                     0.9164022454662335   0.08130034396147566 -0.012828685871468352        1.9556402087622039e-12              3.7446077628217749e-11       
                       4.1754634762621476e-18                          157                                         3337.0062676311677                  -8.7377314722196907e-09                 0                                3.3646305955065402e-19         2.135327427892549e-18             23.443125710769298                     23.443125710769298                       23.443125710769298                  -1.1603861841926621e-17             75.000000000000014           72.933671765263867            17.483693054865569            0                         1.3307534830745566e-17    30                            0                           6                     0.9164022454662335   0.08130034396147566 -0.012828685871468352        0                                3.7446077628217749e-11       
                       4.1614376321809357e-18                          163                                         2889.672848065245                   -6.0699649317646904e-09                -1.4025844081212488e-20              3.4980002871945992e-19         2.1038527900280842e-18             25.412361939980581                     25.412361939980581                       25.412361939980581                  -1.1574016656309204e-17             75.000000000000014           72.718620751336985            18.357619563092129            0                         1.3281801469742596e-17    31                            1                           6                     0.91426792274208213  0.087056416818051457 -0.012383172374415012        1.9098642690859027e-12              3.9355941897303656e-11       
                       4.1520816247514383e-18                          169                                         2331.778335561949                   -4.1474893258179484e-09                -9.3560074294970332e-21              3.6194972527188979e-19         2.0398159754911459e-18             26.731736120091366                     26.731736120091366                       26.731736120091366                  -1.1561378444498295e-17             75.000000000000014           72.500143199298137            19.20232371566695             0                         1.3311694368486698e-17    32                            2                           6                     0.9135533764289967   0.09245536696664057 -0.012106806725479174        1.8515145215160601e-12              4.1207456418819714e-11       
                       4.1459079232843867e-18                          175                                         2389.9953575639029                  -2.8044865646942405e-09                -6.1737014670520077e-21              3.722427469176215e-19         1.958346896482448e-18             27.253083504566632                     27.253083504566632                       27.253083504566632                  -1.1563612064341163e-17             75                           72.278500370197776            20.020449151687888            0                         1.337893034422548e-17    33                            3                           6                     0.91405755114004661  0.097627099873442882 -0.012054358711103745        1.7987089541923259e-12              4.3006165373012042e-11       
                       4.1417315599902743e-18                          181                                         2436.9419964717949                  -2.0153241745397883e-09                -4.176363294112289e-21              3.8019574268415776e-19         1.862397817594274e-18             26.849783672246616                     27.253083504566632                       27.253083504566632                  -1.1578497747046947e-17             75.000000000000014           72.051032695967606            20.824233177829345            0                         1.3477635746758788e-17    34                            4                           6                     0.9155837029296322   0.10276771983840191 -0.012256258713259393        1.7726777841303275e-12              4.4778843157142367e-11       
# Table End
