# ODT 1.0
# Table Start
# Title: mmArchive Data Table, Wed Jun 16 18:45:24 EDT 2010
# Columns: {Oxs_RungeKuttaEvolve:evolve:Total energy} {Oxs_RungeKuttaEvolve:evolve:Energy calc count} {Oxs_RungeKuttaEvolve:evolve:Max dm/dt} Oxs_RungeKuttaEvolve:evolve:dE/dt {Oxs_RungeKuttaEvolve:evolve:Delta E} Oxs_CubicAnisotropy::Energy Oxs_UniformExchange::Energy {Oxs_UniformExchange::Max Spin Ang} {Oxs_UniformExchange::Stage Max Spin Ang} {Oxs_UniformExchange::Run Max Spin Ang} Oxs_TransformZeeman:Rotating:Energy Oxs_Demag::Energy    Oxs_TimeDriver::Iteration {Oxs_TimeDriver::Stage iteration} Oxs_TimeDriver::Stage Oxs_TimeDriver::mx   Oxs_TimeDriver::my   Oxs_TimeDriver::mz   {Oxs_TimeDriver::Last time step} {Oxs_TimeDriver::Simulation time}
# Units:                       J                                            {}                                        deg/ns                                 J/s                                  J                                J                           J                              deg                                    deg                                      deg                                    J                          J                       {}                            {}                          {}                   {}                   {}                   {}                          s                                 s                
                       1.5842165109695701e-17                          1                                           4054.5040193876953                  -3.3162669406590573e-08                 0                                0                           0                               0                                      0                                        0                                    -1.8552317739371528e-18          1.7697396883632853e-17    0                             0                           0                     1                    0                    0                          0                                0                         
                       1.5842087415848459e-17                          7                                           4055.1035453252352                  -3.315522539998305e-08                -7.769384724226503e-23              9.0436717600855857e-27         2.9421100007250015e-25             0.013107467731825972                    0.013107467731825972                      0.013107467731825972                  -1.8552317737320351e-18          1.7697318886325822e-17    1                             1                           0                     0.99999999905795089  3.2875543980480575e-12 -3.2788098554571401e-11        2.343073272235817e-15              2.343073272235817e-15       
                       1.584177681556953e-17                          13                                          4057.4874532508716                  -3.3125252699130329e-08                -3.1060027892802349e-22              2.2599191328232732e-25         7.3511263593156646e-24             0.065518506159923731                    0.065518506159923731                      0.065518506159923731                  -1.8552317688093027e-18          1.769700100726056e-17    2                             2                           0                     0.99999997645916672  8.305405652602031e-11 -8.1961078649162131e-10        9.3722930889432681e-15              1.1715366361179086e-14       
                       1.584177681556953e-17                          14                                          4057.4874532508716                  -3.3125252699130329e-08                 0                                2.2599191328232732e-25         7.3511263593156646e-24             0.065518506159923731                    0.065518506159923731                      0.065518506159923731                  -1.8552317688093027e-18          1.769700100726056e-17    3                             0                           1                     0.99999997645916672  8.305405652602031e-11 -8.1961078649162131e-10        0                                1.1715366361179086e-14       
                       1.5840537267569666e-17                          20                                          4066.7969525666258                  -3.3002238282440651e-08                -1.2395479998636664e-21              3.979252377397807e-24         1.2937275729816369e-22             0.27485110529523626                    0.27485110529523626                      0.27485110529523626                  -1.8552316834882804e-18          1.7695635599048273e-17    4                             1                           1                     0.99999958549175738  1.5260953445471302e-09 -1.4451454938432493e-08        3.7489172355773072e-14              4.9204538716952155e-14       
                       1.5835627933863936e-17                          26                                          4100.4839549064964                  -3.2461807117419192e-08                -4.9093337057296112e-21              6.4667318174384644e-23         2.0976490318080737e-21             1.1065483433820995                     1.1065483433820995                       1.1065483433820995                   -1.8552302925651304e-18          1.7688695910079085e-17    5                             2                           1                     0.9999932630865479   2.8994307608604571e-08 -2.3633398705871496e-07        1.4995668942309229e-13              1.9916122814004446e-13       
                       1.5835627933863936e-17                          27                                          4100.4839549064964                  -3.2461807117419192e-08                 0                                6.4667318174384644e-23         2.0976490318080737e-21             1.1065483433820995                     1.1065483433820995                       1.1065483433820995                   -1.8552302925651304e-18          1.7688695910079085e-17    6                             0                           2                     0.9999932630865479   2.8994307608604571e-08 -2.3633398705871496e-07        0                                1.9916122814004446e-13       
                       1.5816953286871374e-17                          33                                          4183.3896166816676                  -2.965552668899514e-08                -1.8674646992563831e-20              9.9491462987321597e-22         3.1839861214616868e-20             4.3037894763199613                     4.3037894763199613                       4.3037894763199613                   -1.8552079755639749e-18          1.7639326486590858e-17    7                             1                           2                     0.99989619097378735  7.2179351746111405e-07 -3.7753977232533537e-06        5.9982675769236916e-13              7.9898798583241364e-13       
                       1.5774474721815373e-17                          39                                          4127.0796778226086                  -2.0563785779267174e-08                -4.2478565056001436e-20              7.8420828167758284e-21         2.3144909143813391e-19             11.443254594149067                     11.443254594149067                       11.443254594149067                   -1.8549997364909734e-18          1.7390183284051435e-17    8                             2                           2                     0.99917239558529003  1.4078244830241699e-05 -3.6295780315468969e-05        1.7072335945730866e-12              2.5062215804055e-12       
                       1.5774474721815373e-17                          40                                          4127.0796778226086                  -2.0563785779267174e-08                 0                                7.8420828167758284e-21         2.3144909143813391e-19             11.443254594149067                     11.443254594149067                       11.443254594149067                   -1.8549997364909734e-18          1.7390183284051435e-17    9                             0                           3                     0.99917239558529003  1.4078244830241699e-05 -3.6295780315468969e-05        0                                2.5062215804055e-12       
                       1.5740512183703087e-17                          46                                          3927.1918601284415                  -1.810229326501321e-08                -3.3962538112285233e-20              1.6973740663881258e-20         4.2066929387128648e-19             15.022876869769755                     15.022876869769755                       15.022876869769755                   -1.8545440531094839e-18          1.7157413202277401e-17    10                            1                           3                     0.99817310828342853  6.397128216136784e-05 -0.00010602593998158472        1.8387257525622701e-12              4.3449473329677704e-12       
                       1.5701896993459019e-17                          52                                          3792.9801191763804                  -2.2364698343360715e-08                -3.8615190244068193e-20              2.561991823206286e-20         4.6934824876051609e-19             15.408657681537356                     15.408657681537356                       15.408657681537356                   -1.8538236544442413e-18          1.7060752480910679e-17    11                            2                           3                     0.99716842943017026  0.00017809888067517169 -0.00021340231252296322        1.9261346882759886e-12              6.271082021243759e-12       
                       1.5701896993459019e-17                          53                                          3792.9801191763804                  -2.2364698343360715e-08                 0                                2.561991823206286e-20         4.6934824876051609e-19             15.408657681537356                     15.408657681537356                       15.408657681537356                   -1.8538236544442413e-18          1.7060752480910679e-17    12                            0                           4                     0.99716842943017026  0.00017809888067517169 -0.00021340231252296322        0                                6.271082021243759e-12       
                       1.5657376947836026e-17                          59                                          3430.0272432446486                  -2.3941938903615457e-08                -4.4520045622992866e-20              3.5652699850772684e-20         4.4455026893391209e-19             14.459487627461504                     15.408657681537356                       15.408657681537356                   -1.8528927073531734e-18          1.7030066686404515e-17    13                            1                           4                     0.99596767500911776  0.00037137505189252827 -0.00034752047469475489        1.889068673104095e-12              8.1601506943478544e-12       
                       1.5612408059824081e-17                          65                                          3213.4917530848779                  -2.2449699915723682e-08                -4.4968888011944496e-20              4.9868839891378204e-20         4.0129569745992655e-19             12.672932411536477                     15.408657681537356                       15.408657681537356                   -1.8517247445382381e-18          1.7012968267011014e-17    14                            2                           4                     0.99424766008411691  0.00067098727334826151 -0.00050857104482573978        1.942990010140006e-12              1.010314070448786e-11       
                       1.5612408059824081e-17                          66                                          3213.4917530848779                  -2.2449699915723682e-08                 0                                4.9868839891378204e-20         4.0129569745992655e-19             12.672932411536477                     12.672932411536477                       15.408657681537356                   -1.8517247445382381e-18          1.7012968267011014e-17    15                            0                           5                     0.99424766008411691  0.00067098727334826151 -0.00050857104482573978        0                                1.010314070448786e-11       
                       1.5564428112987699e-17                          72                                          3981.3788456469865                  -2.4582438217466119e-08                -4.7979946836380329e-20              7.0007145106154314e-20         3.3596755871604703e-19             10.450910475194361                     12.672932411536477                       15.408657681537356                   -1.8502625283001865e-18          1.7008715937465686e-17    16                            1                           5                     0.99171721013226011  0.0011194403842090285 -0.00069837253785969878        2.083375519667641e-12              1.21865162241555e-11       
                       1.550549455296118e-17                          78                                          4294.3978158407426                  -2.9524378532922913e-08                -5.8933560026519533e-20              9.7639126552638708e-20         3.3201649996288298e-19             10.955663496039334                     12.672932411536477                       15.408657681537356                   -1.8485393736161936e-18          1.6924378300061852e-17    17                            2                           5                     0.98796601948941476  0.0017349152959224654 -0.0009037237729625188        2.1719817754570973e-12              1.4358497999612598e-11       
                       1.550549455296118e-17                          79                                          4294.3978158407426                  -2.9524378532922913e-08                 0                                9.7639126552638708e-20         3.3201649996288298e-19             10.955663496039334                     10.955663496039334                       15.408657681537356                   -1.8485393736161936e-18          1.6924378300061852e-17    18                            0                           6                     0.98796601948941476  0.0017349152959224654 -0.0009037237729625188        0                                1.4358497999612598e-11       
                       1.5436555123019175e-17                          85                                          4076.1023155604439                  -3.1197596101421418e-08                -6.8939429942006115e-20              1.3334413174183578e-19         4.9715324317849985e-19             11.917195986312114                     11.917195986312114                       15.408657681537356                   -1.8465718430082613e-18          1.66526295911071e-17    19                            1                           6                     0.9824967361736342   0.0025306670242030128 -0.0011111844132856272        2.2497739515902885e-12              1.6608271951202886e-11       
                       1.5364240708846305e-17                          91                                          3987.7123234629003                  -3.2741203235320566e-08                -7.2314414172869999e-20              1.7261680450433414e-19         7.6316129945659624e-19             13.092130004730532                     13.092130004730532                       15.408657681537356                   -1.8444030321097443e-18          1.6272865636995119e-17    20                            2                           6                     0.97539948252584541  0.003491607166808281 -0.0013024801553937304        2.2832563951142452e-12              1.8891528346317131e-11       
# Table End
