# ODT 1.0
# Table Start
# Title: mmArchive Data Table, Wed Jun 11 15:40:52 EDT 2014
# Columns: {Oxs_RungeKuttaEvolve:evolver:Total energy} {Oxs_RungeKuttaEvolve:evolver:Energy calc count} {Oxs_RungeKuttaEvolve:evolver:Max dm/dt} Oxs_RungeKuttaEvolve:evolver:dE/dt {Oxs_RungeKuttaEvolve:evolver:Delta E} Oxs_UniformExchange:NiFe:Energy {Oxs_UniformExchange:NiFe:Max Spin Ang} {Oxs_UniformExchange:NiFe:Stage Max Spin Ang} {Oxs_UniformExchange:NiFe:Run Max Spin Ang} Oxs_UZeeman::Energy  Oxs_UZeeman::B       Oxs_UZeeman::Bx      Oxs_UZeeman::By      Oxs_UZeeman::Bz      Oxs_Demag::Energy    Oxs_TimeDriver::Iteration {Oxs_TimeDriver::Stage iteration} Oxs_TimeDriver::Stage Oxs_TimeDriver::mx   Oxs_TimeDriver::my   Oxs_TimeDriver::mz   {Oxs_TimeDriver::Last time step} {Oxs_TimeDriver::Simulation time}
# Units:                        J                                             {}                                         deg/ns                                 J/s                                   J                                   J                                  deg                                        deg                                          deg                              J                 mT                   mT                   mT                   mT                     J                       {}                            {}                          {}                   {}                   {}                   {}                          s                                 s                
                       2.4351502549994089e-17                            1                                            2065.6695921513824                   -1.0556750229876623e-07                  0                                  0                                   0                                          0                                            0                                0                    0                    0                    0                    0                    2.4351502549994089e-17    0                             0                           0                     0                    1                    0                          0                                0                         
                       2.4351017314577156e-17                            7                                            2065.1621356334349                   -1.0545064113006027e-07                 -4.8523541693367286e-22                5.5654297303285935e-25                 0.0061549136940636786                        0.0061549136940636786                          0.0061549136940636786              0                    0                    0                    0                    0                    2.4351016758034185e-17    1                             1                           0                     2.0580746190812029e-07  0.99999999959164954  4.1141951967282513e-07        4.5989930026059046e-15              4.5989930026059046e-15       
                       2.4349081735568514e-17                            13                                           2063.1207478932879                   -1.0498490231630571e-07                 -1.9355790086416893e-21                1.3858076862682505e-23                 0.030715438396585363                        0.030715438396585363                          0.030715438396585363              0                    0                    0                    0                    0                    2.4349067877491651e-17    2                             2                           0                     1.0306446481490885e-06  0.99999998981384297  2.0564042884315339e-06        1.8395972010423619e-14              2.2994965013029522e-14       
                       2.4341424352370912e-17                            19                                           2054.7764166536317                   -1.0314883278062219e-07                 -7.6573831976038861e-21                2.4057025124214688e-22                 0.12799868474298257                        0.12799868474298257                          0.12799868474298257              0                    0                    0                    0                    0                    2.4341183782119668e-17    3                             3                           0                     4.3557086457641885e-06  0.99999982190534398  8.6252521738465436e-06        7.3583888041694474e-14              9.657885305472399e-14       
                       2.4312100446816405e-17                            25                                           2018.9228495774826                   -9.6211071328794493e-08                 -2.9323905554506376e-20                3.6951993656124113e-21                 0.50113469843159342                        0.50113469843159342                          0.50113469843159342              0                    0                    0                    0                    0                    2.4308405247450793e-17    4                             4                           0                     1.8067320986925911e-05  0.99999718468101506  3.4723361587943939e-05        2.943355521667779e-13              3.9091440522150185e-13       
                       2.4310363227377207e-17                            26                                           2819.4950341545396                   -7.8153282129835645e-07                 -1.737219439196645e-21                3.6951993656124113e-21                 0.50113469843159342                        0.50113469843159342                          0.50113469843159342             -1.7372194391966443e-21  100.00000000000001   100.00000000000001   0                    0                    2.4308405247450793e-17    5                             0                           1                     1.8067320986925911e-05  0.99999718468101506  3.4723361587943939e-05        0                                3.9091440522150185e-13       
                       2.4308626007938011e-17                            27                                           3685.8280339226767                   -2.8202614594868381e-06                 -1.7372194391966435e-21                3.6951993656124113e-21                 0.50113469843159342                        0.50113469843159342                          0.50113469843159342             -3.4744388783932886e-21  200.00000000000003   200.00000000000003   0                    0                    2.4308405247450793e-17    6                             0                           2                     1.8067320986925911e-05  0.99999718468101506  3.4723361587943939e-05        0                                3.9091440522150185e-13       
                       2.4301357055200545e-17                            33                                           3685.1445127070242                   -2.8201827427369081e-06                 -7.2689527374665741e-21                3.74196930994469e-21                 0.50428568999917944                        0.50428568999917944                          0.50428568999917944             -1.0476036992606384e-20  200.00000000000003   200.00000000000003   0                    0                    2.4308091122883206e-17    7                             1                           2                     5.4476112443185905e-05  0.99999714184345401  0.00010750525751451315        2.5774398351106839e-15              3.9349184505661253e-13       
                       2.4272283264167907e-17                            39                                           3682.3988589161982                   -2.819870192815781e-06                 -2.9073791032636919e-20                3.9317117193611402e-21                 0.51687099434082873                        0.51687099434082873                          0.51687099434082873             -3.8508510247124293e-20  200.00000000000003   200.00000000000003   0                    0                    2.4306860062695672e-17    8                             2                           2                     0.00020024690020877821  0.99999690205410496  0.00039856143945361962        1.0309759340442735e-14              4.0380160439705527e-13       
                       2.4156019751148012e-17                            45                                           3671.2348813212975                   -2.8186569591686862e-06                 -1.162635130198951e-19                4.7327284851325339e-21                 0.56691278624414854                        0.56691278624414854                          0.56691278624414854             -1.5105536088147405e-19  200.00000000000003   200.00000000000003   0                    0                    2.4302342383544355e-17    9                             3                           2                     0.00078549825953582234  0.99999484819929574  0.0015616435877268812        4.1239037361770942e-14              4.4504064175882623e-13       
                       2.3691429764203301e-17                            51                                           3664.505969370457                    -2.8143887218367895e-06                 -4.6458998694471071e-19                8.5750357402619829e-21                 0.76224835441536709                        0.76224835441536709                          0.76224835441536709             -6.0789255687823007e-19  200.00000000000003   200.00000000000003   0                    0                    2.4290747285341269e-17    10                            4                           2                     0.0031610830799133371  0.99996913750576788  0.0061956815707783714        1.6495614944708377e-13              6.0999679120590999e-13       
                       2.3387483485764186e-17                            52                                           4538.1656394818474                   -6.2055709172754574e-06                 -3.0394627843911503e-19                8.5750357402619829e-21                 0.76224835441536709                        0.76224835441536709                          0.76224835441536709             -9.118388353173451e-19  300                  300                  0                    0                    2.4290747285341269e-17    11                            0                           3                     0.0031610830799133371  0.99996913750576788  0.0061956815707783714        0                                6.0999679120590999e-13       
                       2.3374493078721663e-17                            58                                           4538.1904615736203                   -6.2055067901495763e-06                 -1.2990407042525635e-20                8.6300256416631309e-21                 0.76467714664604802                        0.76467714664604802                          0.76467714664604802             -9.2488755121788581e-19  300                  300                  0                    0                    2.4290750604297883e-17    12                            1                           3                     0.0032063192263135287  0.99996839969464724  0.006283764166539473        2.0933568218291558e-15              6.1209014802773915e-13       
                       2.3322532783960115e-17                            64                                           4538.2856926975564                   -6.2052531479009831e-06                 -5.1960294761545695e-20                8.8514780981797004e-21                 0.77438036484201433                        0.77438036484201433                          0.77438036484201433             -9.7712080329469594e-19  300                  300                  0                    0                    2.4290802109156633e-17    13                            2                           3                     0.0033873968937188532  0.99996534907437717  0.0066360234057457083        8.3734272873166231e-15              6.2046357531505576e-13       
                       2.3114712268229936e-17                            70                                           4538.6022963157584                   -6.2042843595725093e-06                 -2.0782051573018027e-19                9.7609079786369203e-21                 0.81300188266162887                        0.81300188266162887                          0.81300188266162887             -1.1866675804226037e-18  300                  300                  0                    0                    2.4291618940673903e-17    14                            3                           3                     0.0041138353233771694  0.99995155676883363  0.0080439212091877425        3.3493709149266493e-14              6.539572844643223e-13       
                       2.2283718086188186e-17                            76                                           4538.8773931390115                   -6.201136617352386e-06                 -8.309941820417491e-19                1.3759984493301041e-20                 0.96450029076291899                        0.96450029076291899                          0.96450029076291899             -2.0346461813573944e-18  300                  300                  0                    0                    2.4304604283052279e-17    15                            4                           3                     0.0070535333310965407  0.99987096156232236  0.013657231908385322        1.3397483659706597e-13              7.8793212106138827e-13       
                       2.1605502692402387e-17                            77                                           5424.2880573143202                   -1.0944375941852053e-05                 -6.7821539378579819e-19                1.3759984493301041e-20                 0.96450029076291899                        0.96450029076291899                          0.96450029076291899             -2.7128615751431928e-18  400.00000000000006   400.00000000000006   0                    0                    2.4304604283052279e-17    16                            0                           4                     0.0070535333310965407  0.99987096156232236  0.013657231908385322        0                                7.8793212106138827e-13       
                       2.1586334954620293e-17                            83                                           5424.3253530890379                   -1.0944325402911394e-05                 -1.9167737782094286e-20                1.3815923783648997e-20                 0.96645036498021841                        0.96645036498021841                          0.96645036498021841             -2.7325207129613282e-18  400.00000000000006   400.00000000000006   0                    0                    2.4305039743797974e-17    17                            1                           4                     0.0071046477650696495  0.99986921244210369  0.013755064169199995        1.751381914017238e-15              7.8968350297540544e-13       
                       2.1509664880311258e-17                            89                                           5424.4714647790906                   -1.0944126410374878e-05                 -7.6670074309033849e-20                1.404059045664789e-20                 0.97424280697002563                        0.97424280697002563                          0.97424280697002563             -2.8112047071076347e-18  400.00000000000006   400.00000000000006   0                    0                    2.4306828996962248e-17    18                            2                           4                     0.0073092288540643887  0.99986209325774922  0.014146325487647932        7.005527656068952e-15              7.9668903063147444e-13       
                       2.1202997992157356e-17                            95                                           5425.0071003994026                   -1.0943380997161185e-05                 -3.0666688815390307e-19                1.4953667960292609e-20                 1.0052868742517358                         1.0052868742517358                           1.0052868742517358              -3.1266992337407872e-18  400.00000000000006   400.00000000000006   0                    0                    2.4314743557937851e-17    19                            3                           4                     0.0081295254662378282  0.99983165339433588  0.015710285711497331        2.8022110624275808e-14              8.2471114125575024e-13       
                       1.9976505434632287e-17                            101                                          5426.3897660054781                   -1.0941204708955707e-05                 -1.2264925575250701e-18                1.8827705751294691e-20                 1.1274522938689635                         1.1274522938689635                           1.1274522938689635              -4.4007794890973157e-18  400.00000000000006   400.00000000000006   0                    0                    2.4358457217978307e-17    20                            4                           4                     0.01144217791780087  0.99967849171245438  0.021948673345735244        1.1208844249710323e-13              9.3679958375285342e-13       
                       1.8876310562357957e-17                            102                                          6317.8485754334197                   -1.7036001738142437e-05                 -1.1001948722743289e-18                1.8827705751294691e-20                 1.1274522938689635                         1.1274522938689635                           1.1274522938689635              -5.5009743613716446e-18  500.00000000000006   500.00000000000006   0                    0                    2.4358457217978307e-17    21                            0                           5                     0.01144217791780087  0.99967849171245438  0.021948673345735244        0                                9.3679958375285342e-13       
                       1.8850693958772506e-17                            108                                          6317.8890424871279                   -1.7035960941115693e-05                 -2.5616603585451561e-20                1.8881992707240557e-20                 1.1290689864193102                         1.1290689864193102                           1.1290689864193102              -5.527590834492837e-18  500.00000000000006   500.00000000000006   0                    0                    2.4359402800558103e-17    22                            1                           5                     0.011497540913697674  0.99967550746149947  0.022053326221654859        1.5036764313947296e-15              9.3830326018424811e-13       
                       1.8748228150573414e-17                            114                                          6318.0483965137173                   -1.7035800994985578e-05                 -1.024658081990922e-19                1.9099733763280964e-20                 1.135530260557323                          1.135530260557323                            1.135530260557323               -5.6341109925430827e-18  500.00000000000006   500.00000000000006   0                    0                    2.4363239409353215e-17    23                            2                           5                     0.011719105771153085  0.99966342966560806  0.022471873303707028        6.0147057255789184e-15              9.443179659098271e-13       
                       1.8338374070289714e-17                            120                                          6318.6457821238691                   -1.7035213051755595e-05                 -4.0985408028369874e-19                1.998010692154542e-20                 1.1612874216808677                         1.1612874216808677                           1.1612874216808677              -6.0610592471418995e-18  500.00000000000006   500.00000000000006   0                    0                    2.437945321051007e-17    24                            3                           5                     0.012607169879417006  0.99961286592811027  0.024145028942883482        2.4058822902315674e-14              9.6837678881214284e-13       
                       1.6699069323952417e-17                            126                                          6320.4073672546356                   -1.703368871787078e-05                 -1.6393047463372998e-18                2.3646949675883483e-20                 1.2629100477161697                         1.2629100477161697                           1.2629100477161697              -7.7826936418077012e-18  500.00000000000006   500.00000000000006   0                    0                    2.4458116016084235e-17    25                            4                           5                     0.016188216755676142  0.99937457751197678  0.030821004679948239        9.6235291609262695e-14              1.0646120804214056e-12       
                       1.5142530595590876e-17                            127                                          7215.2669408128941                   -2.4479372968533489e-05                 -1.5565387283615405e-18                2.3646949675883483e-20                 1.2629100477161697                         1.2629100477161697                           1.2629100477161697              -9.3392323701692421e-18  600                  600                  0                    0                    2.4458116016084235e-17    26                            0                           6                     0.016188216755676142  0.99937457751197678  0.030821004679948239        0                                1.0646120804214056e-12       
                       1.5110299790458849e-17                            133                                          7215.3056706273555                   -2.4479335029890733e-05                 -3.2230805132025605e-20                2.3698669113001426e-20                 1.2642844320034321                         1.2642844320034321                           1.2642844320034321              -9.3730266827644742e-18  600                  600                  0                    0                    2.4459627804110323e-17    27                            1                           6                     0.016246794338470642  0.99937019416117123  0.030930672705777901        1.3166526031439802e-15              1.0659287330245496e-12       
                       1.4981377063273378e-17                            139                                          7215.4583980214902                   -2.447918640318011e-05                 -1.2892272718547166e-19                2.390595366385206e-20                 1.2697779680551535                         1.2697779680551535                           1.2697779680551535              -9.5082633857304154e-18  600                  600                  0                    0                    2.446573449533994e-17    28                            2                           6                     0.016481207722158189  0.99935250568016165  0.031369282936614187        5.2666104125759209e-15              1.0711953434371255e-12       
                       1.4465693586800076e-17                            145                                          7216.0343597015953                   -2.4478641936155706e-05                 -5.1568347647330226e-19                2.4741548461491055e-20                 1.291688088552895                          1.291688088552895                            1.291688088552895               -1.0050160713446653e-17  600                  600                  0                    0                    2.4491112751785239e-17    29                            3                           6                     0.017420508839497577  0.99927927064992983  0.033122731559539362        2.1066441650303684e-14              1.092261785087429e-12       
                       1.2403049092375124e-17                            151                                          7217.7868267722397                   -2.4477264218481061e-05                 -2.0626444944249516e-18                2.8183949104204958e-20                 1.3783042319262153                         1.3783042319262153                           1.3783042319262153              -1.2232911260929314e-17  600                  600                  0                    0                    2.4607776404200232e-17    30                            4                           6                     0.021203993133033765  0.99894664168735714  0.040120500010343611        8.4265766601214734e-14              1.1765275516886438e-12       
                       1.0364230548886905e-17                            152                                          8114.6757459246101                   -3.3272955192492732e-05                 -2.0388185434882189e-18                2.8183949104204958e-20                 1.3783042319262153                         1.3783042319262153                           1.3783042319262153              -1.4271729804417533e-17  700                  700                  0                    0                    2.4607776404200232e-17    31                            0                           7                     0.021203993133033765  0.99894664168735714  0.040120500010343611        0                                1.1765275516886438e-12       
                       1.0325277315338018e-17                            158                                          8114.7096238535696                   -3.3272910013716559e-05                 -3.8953233548886858e-20                2.823285723286297e-20                 1.3794956060571697                         1.3794956060571697                           1.3794956060571697              -1.4312851509103577e-17  700                  700                  0                    0                    2.4609895967208731e-17    32                            1                           7                     0.021265089044722872  0.99894073540821748  0.040233992791829182        1.170718374640063e-15              1.1776982700632839e-12       
                       1.0169464905067304e-17                            164                                          8114.8431308064419                   -3.327273214103463e-05                 -1.5581241027071347e-19                2.8428779254578176e-20                 1.3842580863010014                         1.3842580863010014                           1.3842580863010014              -1.447740173929606e-17  700                  700                  0                    0                    2.4618437865108786e-17    33                            2                           7                     0.021509566904019266  0.998916943714102    0.040687903752445125        4.682873498560252e-15              1.1823811435618442e-12       
                       9.5462232739792521e-18                            170                                          8115.3451606876761                   -3.3272066147457299e-05                 -6.2324163108805193e-19                2.9217064436660438e-20                 1.4032597274750067                         1.4032597274750067                           1.4032597274750067              -1.5136616409169651e-17  700                  700                  0                    0                    2.4653622618712243e-17    34                            3                           7                     0.022488984502639173  0.99881911187414907  0.042502582283564593        1.8731493994241008e-14              1.2011126375560851e-12       
# Table End
