# ODT 1.0
# Table Start
# Title: mmArchive Data Table, Wed Jun 11 15:40:48 EDT 2014
# Columns: {Oxs_RungeKuttaEvolve:evolve:Total energy} {Oxs_RungeKuttaEvolve:evolve:Energy calc count} {Oxs_RungeKuttaEvolve:evolve:Max dm/dt} Oxs_RungeKuttaEvolve:evolve:dE/dt {Oxs_RungeKuttaEvolve:evolve:Delta E} Oxs_CubicAnisotropy::Energy Oxs_UniformExchange::Energy {Oxs_UniformExchange::Max Spin Ang} {Oxs_UniformExchange::Stage Max Spin Ang} {Oxs_UniformExchange::Run Max Spin Ang} Oxs_UZeeman::Energy  Oxs_UZeeman::B       Oxs_UZeeman::Bx      Oxs_UZeeman::By      Oxs_UZeeman::Bz      Oxs_Demag::Energy    Oxs_TimeDriver::Iteration {Oxs_TimeDriver::Stage iteration} Oxs_TimeDriver::Stage Oxs_TimeDriver::mx   Oxs_TimeDriver::my   Oxs_TimeDriver::mz   {Oxs_TimeDriver::Last time step} {Oxs_TimeDriver::Simulation time}
# Units:                       J                                            {}                                        deg/ns                                 J/s                                  J                                J                           J                              deg                                    deg                                      deg                            J                 mT                   mT                   mT                   mT                     J                       {}                            {}                          {}                   {}                   {}                   {}                          s                                 s                
                       5.0427954329734938e-18                          1                                           1570.9045089483445                  -1.736396670433839e-08                 0                               -8.9917260260424522e-22         0                               0                                      0                                        0                              0                    0                    0                    0                    0                    5.0436946055760984e-18    0                             0                           0                     0.99975009371095458  0.019995001874219091  0.0099975009371095457        0                                0                         
                       5.0426904737654894e-18                          7                                           1569.7768548099095                  -1.7347803040503138e-08                -1.0495920800478648e-22             -8.9887749667339051e-22         1.0079171131260459e-25             0.0060962771097333021                    0.0060962771097333021                      0.0060962771097333021            0                    0                    0                    0                    0                    5.0435892504704516e-18    1                             1                           0                     0.9997501757751861   0.019991387989224486  0.0099964652904054735        6.0474713427106122e-15              6.0474713427106122e-15       
                       5.0422716129179781e-18                          13                                          1565.2564138965013                  -1.7283314614747774e-08                -4.1886084751108465e-22             -8.9773820321722951e-22         2.5118141716575925e-24             0.030411452388667624                    0.030411452388667624                      0.030411452388667624            0                    0                    0                    0                    0                    5.0431668393070239e-18    2                             2                           0                     0.99975049257705462  0.019976936607375859  0.0099923226753787665        2.4189885370842449e-14              3.0237356713553058e-14       
                       5.0406116731653623e-18                          19                                          1554.1859241706775                  -1.702800408135858e-08                -1.6599397526158937e-21             -8.9383273453490159e-22         4.3748160702054446e-23             0.12653529272313613                    0.12653529272313613                      0.12653529272313613            0                    0                    0                    0                    0                    5.0414617577391949e-18    3                             3                           0                     0.99975157828110428  0.019919197656135999  0.0099757517208758032        9.6759541483369796e-14              1.2699689819692286e-13       
                       5.034212927592752e-18                          25                                          1520.071159229444                   -1.6048043659660332e-08                -6.3987455726102496e-21             -8.8823394215552602e-22         6.8082001190558091e-22             0.49196655850723792                    0.49196655850723792                      0.49196655850723792            0                    0                    0                    0                    0                    5.0344203415230017e-18    4                             4                           0                     0.99975312939182781  0.019689309907260928  0.0099094573231279307        3.8703816593347918e-13              5.1403506413040204e-13       
                      -4.7652972928180732e-18                          26                                          1516.2850536442231                  -1.6061855845931561e-08                -9.7995102204108252e-18             -8.8823394215552602e-22         6.8082001190558091e-22             0.49196655850723792                    0.49196655850723792                      0.49196655850723792           -9.7995102204108252e-18  50.002499937503131   50.000000000000007   0.5                  0                    5.0344203415230017e-18    5                             0                           1                     0.99975312939182781  0.019689309907260928  0.0099094573231279307        0                                5.1403506413040204e-13       
                      -4.7653978751671254e-18                          32                                          1515.6646137704136                  -1.6045833945498999e-08                -1.0058234905218598e-22             -8.8823089435927711e-22         6.9690296768569746e-22             0.49761247067163206                    0.49761247067163206                      0.49761247067163206           -9.7995098001326301e-18  50.002499937503131   50.000000000000007   0.5                  0                    5.0343032528921788e-18    6                             1                           1                     0.99975313008437416  0.019684952099617677  0.0099085927613166824        6.2653126977462468e-15              5.2030037682814825e-13       
                      -4.7657992023992883e-18                          38                                          1513.1757291794866                  -1.5981922718044185e-08                -4.0132723216285504e-22             -8.8825766211087283e-22         7.6296273559214013e-22             0.52011102289439748                    0.52011102289439748                      0.52011102289439748           -9.7995080131519692e-18  50.002499937503131   50.000000000000007   0.5                  0                    5.0338341056791993e-18    7                             2                           1                     0.99975312199935562  0.019667526104918124  0.0099051321533215261        2.5061250790984987e-14              5.4536162761913325e-13       
                      -4.7673885999603286e-18                          44                                          1503.1140249390919                  -1.572908274431093e-08                -1.5893975610404197e-21             -8.8898102434684836e-22         1.0543038477760224e-21             0.608741285520774                      0.608741285520774                        0.608741285520774             -9.7994991904638756e-18  50.002499937503131   50.000000000000007   0.5                  0                    5.0319452676801186e-18    8                             3                           1                     0.99975291792572651  0.019597906038320633  0.0098912519873817217        1.0024500316393995e-13              6.4560663078307319e-13       
                      -4.7734993516481651e-18                          50                                          1461.6458406123522                  -1.4761509567909529e-08                -6.1107516878364565e-21             -9.0129141185036625e-22         2.6196571302250988e-21             0.94154104304056763                    0.94154104304056763                      0.94154104304056763           -9.7994383050105641e-18  50.002499937503131   50.000000000000007   0.5                  0                    5.0242205876440241e-18    9                             4                           1                     0.99974947641448664  0.019320777026464502  0.0098351301221690259        4.009800126557598e-13              1.046586643438833e-12       
                      -1.4572937656658728e-17                          51                                          1455.278457591827                   -1.4744673553881155e-08                -9.7994383050105641e-18             -9.0129141185036625e-22         2.6196571302250988e-21             0.94154104304056763                    0.94154104304056763                      0.94154104304056763           -1.9598876610021128e-17  100.00499987500626   100.00000000000001   1                    0                    5.0242205876440241e-18    10                            0                           2                     0.99974947641448664  0.019320777026464502  0.0098351301221690259        0                                1.046586643438833e-12       
                      -1.4573033857630531e-17                          57                                          1454.5537333379395                  -1.4728845793527435e-08                -9.620097180380869e-23             -9.0156922636528939e-22         2.6499003906908157e-21             0.94665355169452503                    0.94665355169452503                      0.94665355169452503           -1.9598874076869616e-17  100.00499987500626   100.00000000000001   1                    0                    5.0240918880747563e-18    11                            1                           2                     0.99974939876760616  0.019315617472103083  0.0098344108039673962        6.5279603023331062e-15              1.053114603741166e-12       
                      -1.4573417630145514e-17                          63                                          1451.6534739400354                  -1.4665724398099227e-08                -3.8377251498020891e-22             -9.0271683831760779e-22         2.7723059824649815e-21             0.96701272117784964                    0.96701272117784964                      0.96701272117784964           -1.9598863746764797e-17  100.00499987500626   100.00000000000001   1                    0                    5.0235765274751378e-18    12                            2                           2                     0.99974907803588486  0.019294986027812495  0.009831527860165128        2.6111841209332425e-14              1.0792264449504986e-12       
                      -1.4574936356291221e-17                          69                                          1440.037670994411                   -1.4416253340500402e-08                -1.5187261457069995e-21             -9.0788124667717207e-22         3.2843088550036454e-21             1.0470067659733036                     1.0470067659733036                       1.0470067659733036            -1.9598819308016681e-17  100.00499987500626   100.00000000000001   1                    0                    5.0215065241171354e-18    13                            3                           2                     0.99974763492387153  0.019212568922440297  0.0098199055306880164        1.044473648373297e-13              1.1836738097878282e-12       
                      -1.4580758099373866e-17                          75                                          1393.7515201289261                  -1.3465355153117998e-08                -5.8217430826450758e-21             -9.3724049325510524e-22         5.6573592496941203e-21             1.3496536952445777                     1.3496536952445777                       1.3496536952445777            -1.9598594263599267e-17  100.00499987500626   100.00000000000001   1                    0                    5.0131160454689625e-18    14                            4                           2                     0.99973943217302241  0.018884658204213835  0.0097719791039504907        4.177894593493188e-13              1.601463269137147e-12       
                       5.015985467721389e-18                          76                                          1414.8851897993673                  -1.35779048034028e-08                 1.9596743567095254e-17             -9.3724049325510524e-22         5.6573592496941203e-21             1.3496536952445777                     1.3496536952445777                       1.3496536952445777            -1.850696504012956e-21  0.5                  0                    0.5                  0                    5.0131160454689625e-18    15                            0                           3                     0.99973943217302241  0.018884658204213835  0.0097719791039504907        0                                1.601463269137147e-12       
                       5.0158943466574786e-18                          82                                          1414.2280284615522                  -1.3564380778500159e-08                -9.112106391051569e-23             -9.3790916678547118e-22         5.6998830869282258e-21             1.3553893336416356                     1.3553893336416356                       1.3553893336416356            -1.8503371148717851e-21  0.5                  0                    0.5                  0                    5.0129827098522074e-18    16                            1                           3                     0.99973924543383907  0.018880990968079436  0.0097703399133695305        6.7143257053578411e-15              1.6081775948425048e-12       
                       5.0155307688339147e-18                          88                                          1411.6015985514798                  -1.3510444972708937e-08                -3.6357782356391834e-22             -9.4061762778872976e-22         5.8711601882815831e-21             1.3783208356791337                     1.3783208356791337                       1.3783208356791337            -1.8489002427013526e-21  0.5                  0                    0.5                  0                    5.0124491265161226e-18    17                            2                           3                     0.99973848903044926  0.018866329007156658  0.0097637839970548552        2.6857302821431364e-14              1.6350348976639363e-12       
                       5.014090840459343e-18                          94                                          1401.1364870770094                  -1.3297249295100397e-08                -1.4399283745715393e-21             -9.5198470316735757e-22         6.5747122877299255e-21             1.469843662035144                      1.469843662035144                        1.469843662035144             -1.8431637033184864e-21  0.5                  0                    0.5                  0                    5.0103112765780987e-18    18                            3                           3                     0.99973531420140083  0.018807792891004961  0.0097375738210640425        1.0742921128572546e-13              1.7424641089496616e-12       
                       5.0085537259784816e-18                          100                                         1360.2159577510893                  -1.2484173223983487e-08                -5.5371144808613153e-21             -1.0055454902975036e-21         9.6556781751100382e-21             1.8310404407654781                     1.8310404407654781                       1.8310404407654781            -1.8203926576126347e-21  0.5                  0                    0.5                  0                    5.0017239859512816e-18    19                            4                           3                     0.99972034789007957  0.018575435281761577  0.0096329460793935871        4.2971684514290183e-13              2.1721809540925636e-12       
                       2.4604892937281656e-17                          101                                         1385.5741611943524                  -1.2752014565203402e-08                 1.9596339211303175e-17             -1.0055454902975036e-21         9.6556781751100382e-21             1.8310404407654781                     1.8310404407654781                       1.8310404407654781             1.9594518818645562e-17  100.00000000000001  -100.00000000000001   0                    0                    5.0017239859512816e-18    20                            0                           4                     0.99972034789007957  0.018575435281761577  0.0096329460793935871        0                                2.1721809540925636e-12       
                       2.4604805543833346e-17                          107                                         1385.01765065892                    -1.2740641066196331e-08                -8.739344831027405e-23             -1.0065972510255318e-21         9.7088937930216758e-21             1.8368088327002057                     1.8368088327002057                       1.8368088327002057             1.959451305816579e-17  100.00000000000001  -100.00000000000001   0                    0                    5.0015901891255616e-18    21                            1                           4                     0.99972005398805031  0.018573335522503547  0.0096304339945849481        6.8563634239621535e-15              2.1790373175165257e-12       
                       2.4604456748497153e-17                          113                                         1382.7959325224535                  -1.2695278423488478e-08                -3.4879533619357933e-22             -1.010836038201444e-21         9.9227381906586276e-21             1.8598550412247798                     1.8598550412247798                       1.8598550412247798             1.9594489841551282e-17  100.00000000000001  -100.00000000000001   0                    0                    5.0010550047934138e-18    22                            2                           4                     0.99971886946690203  0.018564943156456994  0.0096203894706080526        2.7425453695848614e-14              2.2064627712123742e-12       
                       2.4603073922021643e-17                          119                                         1373.9812961458247                  -1.2515916504742532e-08                -1.3828264755086273e-21             -1.0282929106142719e-21         1.0793438088966601e-20             1.9515796624676012                     1.9515796624676012                       1.9515796624676012             1.9594394213052211e-17  100.00000000000001  -100.00000000000001   0                    0                    4.9989145637910802e-18    23                            3                           4                     0.99971399046184739  0.018531480343454417  0.0095802722560398377        1.0970181478339446e-13              2.3161645859957687e-12       
                       2.4597733982439773e-17                          125                                         1340.0379940640191                  -1.1831095140057595e-08                -5.339939581871155e-21             -1.1057624222383509e-21         1.4497644282882734e-20             2.309794839582973                      2.309794839582973                        2.309794839582973              1.9593969568330883e-17  100.00000000000001  -100.00000000000001   0                    0                    4.9903725322482451e-18    24                            4                           4                     0.99969232491484084  0.018399330048191154  0.0094207672203270969        4.3880725913357782e-13              2.7549718451293467e-12       
                       5.0037644141088893e-18                          126                                         1311.2931024975881                  -1.1533666120431132e-08                -1.9593969568330883e-17             -1.1057624222383509e-21         1.4497644282882734e-20             2.309794839582973                      2.309794839582973                        2.309794839582973              0                    0                    0                    0                    0                    4.9903725322482451e-18    25                            0                           5                     0.99969232491484084  0.018399330048191154  0.0094207672203270969        0                                2.7549718451293467e-12       
                       5.0036808986672906e-18                          132                                         1310.707980731961                   -1.1521751855673288e-08                -8.351544159907371e-23             -1.1070265577203949e-21         1.4559997179161851e-20             2.3154589739097124                     2.3154589739097124                       2.3154589739097124             0                    0                    0                    0                    0                    4.9902279280458491e-18    26                            1                           5                     0.99969197108150165  0.018395272517487311  0.0094195425092551185        7.2447570889418862e-15              2.7622166022182884e-12       
                       5.0033476982961423e-18                          138                                         1308.3669030418214                  -1.1474257091380795e-08                -3.3320037114810822e-22             -1.1121108523519489e-21         1.4810087219039686e-20             2.3380644953613192                     2.3380644953613192                       2.3380644953613192             0                    0                    0                    0                    0                    4.9896497219294547e-18    27                            2                           5                     0.99969054791813983  0.018379048438464603  0.0094146434329353441        2.8979028355767545e-14              2.7911956305740559e-12       
                       5.0020285480038277e-18                          144                                         1299.0001501744202                  -1.1286858607859098e-08                -1.3191502923145624e-21             -1.1328849791733877e-21         1.5820905693804224e-20             2.4276524831780901                     2.4276524831780901                       2.4276524831780901             0                    0                    0                    0                    0                    4.9873405272891969e-18    28                            3                           5                     0.99968473192823104  0.018314248849397825  0.0093950433920108357        1.1591611342307018e-13              2.907111743997126e-12       
                       4.9969621288930724e-18                          150                                         1261.8843050220842                  -1.057755099081586e-08                -5.0664191107551848e-21             -1.2225331817683298e-21         2.0007380285992816e-20             2.7716905681928967                     2.7716905681928967                       2.7716905681928967             0                    0                    0                    0                    0                    4.9781772817888482e-18    29                            4                           5                     0.99965961497480771  0.018056599683141158  0.0093165821318314471        4.6366445369228072e-13              3.3707761976894068e-12       
                       4.9084847904456804e-18                          151                                         1476.9661226052244                  -1.8773655000414883e-08                -8.8477338447391684e-20             -1.2225331817683298e-21         2.0007380285992816e-20             2.7716905681928967                     2.7716905681928967                       2.7716905681928967            -8.8477338447391684e-20  25.000000000000004   0                    25.000000000000004   0                    4.9781772817888482e-18    30                            0                           6                     0.99965961497480771  0.018056599683141158  0.0093165821318314471        0                                3.3707761976894068e-12       
                       4.9083640698350093e-18                          157                                         1476.5170339317999                  -1.8763242616191619e-08                -1.2072061067151683e-22             -1.2238234311309717e-21         2.0066810345209648e-20             2.7762927786548026                     2.7762927786548026                       2.7762927786548026            -8.8515357701140944e-20  25.000000000000004   0                    25.000000000000004   0                    4.9780364406220713e-18    31                            1                           6                     0.99965925318975524  0.018064358714518558  0.0092928665445673429        6.43210419968396e-15              3.3772083018890908e-12       
                       4.907881855737499e-18                          163                                         1474.7260688994998                  -1.8721737129729422e-08                -4.8221409750989916e-22             -1.2290306930695014e-21         2.0304848882836918e-20             2.7946535762280069                     2.7946535762280069                       2.7946535762280069            -8.8667839249949837e-20  25.000000000000004   0                    25.000000000000004   0                    4.9774738767976816e-18    32                            2                           6                     0.99965779307591174  0.018095477397948943  0.0091980478078431786        2.572841679873584e-14              3.4029367186878265e-12       
                       4.9059635894662691e-18                          169                                         1467.6481574311686                  -1.8558007909038871e-08                -1.9182662712301702e-21             -1.2505950058159845e-21         2.1261869579634113e-20             2.8673226770788287                     2.8673226770788287                       2.8673226770788287            -8.9284228518452869e-20  25.000000000000004   0                    25.000000000000004   0                    4.9752365434109041e-18    33                            3                           6                     0.99965174639889787  0.018221271126214869  0.0088194701082614253        1.0291366719494336e-13              3.5058503858827701e-12       
                       4.8984534533903323e-18                          175                                         1440.6811851258906                  -1.7939007903770782e-08                -7.5101360759367162e-21             -1.3483085308488605e-21         2.5153980087497599e-20             3.1453558501940022                     3.1453558501940022                       3.1453558501940022            -9.1852589192214048e-20  25.000000000000004   0                    25.000000000000004   0                    4.9665003710258976e-18    34                            4                           6                     0.99962434418908119  0.018745426365757965  0.0073162801069087775        4.1165466877977344e-13              3.9175050546625436e-12       
# Table End
