# ODT 1.0
# Table Start
# Title: mmArchive Data Table, Wed Jun 16 18:45:39 EDT 2010
# Columns: {Oxs_RungeKuttaEvolve:evolve:Total energy} {Oxs_RungeKuttaEvolve:evolve:Energy calc count} {Oxs_RungeKuttaEvolve:evolve:Max dm/dt} Oxs_RungeKuttaEvolve:evolve:dE/dt {Oxs_RungeKuttaEvolve:evolve:Delta E} Oxs_UniformExchange:NiFe:Energy {Oxs_UniformExchange:NiFe:Max Spin Ang} {Oxs_UniformExchange:NiFe:Stage Max Spin Ang} {Oxs_UniformExchange:NiFe:Run Max Spin Ang} Oxs_UZeeman::Energy  Oxs_UZeeman::B       Oxs_UZeeman::Bx      Oxs_UZeeman::By      Oxs_UZeeman::Bz      Oxs_Demag::Energy    Oxs_TimeDriver::Iteration {Oxs_TimeDriver::Stage iteration} Oxs_TimeDriver::Stage Oxs_TimeDriver::mx   Oxs_TimeDriver::my   Oxs_TimeDriver::mz   {Oxs_TimeDriver::Last time step} {Oxs_TimeDriver::Simulation time}
# Units:                       J                                            {}                                        deg/ns                                 J/s                                  J                                  J                                  deg                                        deg                                          deg                              J                 mT                   mT                   mT                   mT                     J                       {}                            {}                          {}                   {}                   {}                   {}                          s                                 s                
                       4.9942190359097722e-17                          1                                           2302.2356155482266                  -3.2822702264765549e-07                 0                                  0                                   0                                          0                                            0                                0                    0                    0                    0                    0                    4.9942190359097722e-17    0                             0                           0                     0                   -1                    0                          0                                0                         
                       4.9940836103858422e-17                          7                                           2302.0485729509319                  -3.2815501342742025e-07                -1.3542552393029238e-21                2.3652659772918659e-25                 0.0072115916047426083                        0.0072115916047426083                          0.0072115916047426083              0                    0                    0                    0                    0                    4.9940835867331822e-17    1                             1                           0                     1.0732990792174804e-05 -0.99999999692741959 -2.1464429169580943e-05        4.1264238707113322e-15              4.1264238707113322e-15       
                       4.9935422052204977e-17                          13                                          2301.2994578545513                  -3.2786731609625337e-07                -5.4140516534430806e-21                5.9082248607646435e-24                 0.036039243304289738                        0.036039243304289738                          0.036039243304289738              0                    0                    0                    0                    0                    4.9935416143980118e-17    2                             2                           0                     5.3683597947301456e-05 -0.99999992321918352 -0.00010732837605930535        1.6505695482845329e-14              2.063211935355666e-14       
                       5.0255420309759985e-17                          14                                          2301.9923067866989                  -3.2803499429680571e-07                 3.1999825755500449e-19                5.9082248607646435e-24                 0.036039243304289738                        0.036039243304289738                          0.036039243304289738              3.1999825755500444e-19  1.0049875621120892   0.10000000000000001  1                    0                    4.9935416143980118e-17    3                             0                           1                     5.3683597947301456e-05 -0.99999992321918352 -0.00010732837605930535        0                                2.063211935355666e-14       
                       5.0254066703088884e-17                          20                                          2301.8055798767023                  -3.2796335731415026e-07                -1.3536066710985145e-21                8.5063701223803603e-24                 0.043242244156886288                        0.043242244156886288                          0.043242244156886288              3.1999790202562707e-19  1.0049875621120892   0.10000000000000001  1                    0                    4.9934060294693136e-17    4                             1                           1                     6.4456043553115345e-05 -0.99999988943443985 -0.00012885634325888906        4.1268600125170897e-15              2.475897936607375e-14       
                       5.0248655230662138e-17                          26                                          2301.0577314195489                  -3.2767714864832575e-07                -5.4114724267457393e-21                2.3610761321701298e-23                 0.072035488777860923                        0.072035488777860923                          0.072035488777860923              3.1999645967580578e-19  1.0049875621120892   0.10000000000000001  1                    0                    4.9928635160225012e-17    5                             2                           1                     0.00010756447035382533 -0.99999969293392832 -0.00021497453264151284        1.6507440050068359e-14              4.1266419416142106e-14       
                       5.0568651690337946e-17                          27                                          2301.7543869674851                  -3.2784627806337528e-07                 3.1999645967580578e-19                2.3610761321701298e-23                 0.072035488777860923                        0.072035488777860923                          0.072035488777860923              6.3999291935161156e-19  2.0099751242241783   0.20000000000000001  2                    0                    4.9928635160225012e-17    6                             0                           2                     0.00010756447035382533 -0.99999969293392832 -0.00021497453264151284        0                                4.1266419416142106e-14       
                       5.0567298721869024e-17                          33                                          2301.5679787571426                  -3.2777501364307986e-07                -1.3529684689177949e-21                2.856388643199839e-23                 0.07922986966610629                        0.07922986966610629                          0.07922986966610629              6.3999218612703702e-19  2.0099751242241783   0.20000000000000001  2                    0                    4.9927277971855556e-17    7                             1                           2                     0.00011837630609295194 -0.99999962845410451 -0.00023656610820262038        4.1272865835681353e-15              4.539370599971024e-14       
                       5.0561889787181426e-17                          39                                          2300.8214089668913                  -3.2749029494002238e-07                -5.4089346875995651e-21                5.3074451227098416e-23                 0.10798859083182091                        0.10798859083182091                          0.10798859083182091              6.3998921279985126e-19  2.0099751242241783   0.20000000000000001  2                    0                    4.9921847499930346e-17    8                             2                           2                     0.00016164229325384309 -0.99999930922909286 -0.00032293882202528285        1.6509146334272541e-14              6.1902852333982791e-14       
                       5.0881884393581354e-17                          40                                          2301.5218622119792                  -3.2766087547183304e-07                 3.1999460639992563e-19                5.3074451227098416e-23                 0.10798859083182091                        0.10798859083182091                          0.10798859083182091              9.599838191997768e-19  3.0149626863362675   0.30000000000000004  3.0000000000000004   0                    4.9921847499930346e-17    9                             0                           3                     0.00016164229325384309 -0.99999930922909286 -0.00032293882202528285        0                                6.1902852333982791e-14       
                       5.0880532052938199e-17                          46                                          2301.3357756999021                  -3.2758998393899227e-07                -1.3523406431548792e-21                6.0375930532521933e-23                 0.11517432278129219                        0.11517432278129219                          0.11517432278129219              9.5998268613662454e-19  3.0149626863362675   0.30000000000000004  3.0000000000000004   0                    4.9920488990871039e-17    10                            1                           3                     0.00017249345372725991 -0.99999921407102321 -0.00034459407630391467        4.1277035669214133e-15              6.60305559009042e-14       
                       5.0875125614460692e-17                          52                                          2300.59049654925                    -3.2730675649741112e-07                -5.4064384775033689e-21                9.4266202641532909e-23                 0.14389840506502583                        0.14389840506502583                          0.14389840506502583              9.5997809329380493e-19  3.0149626863362675   0.30000000000000004  3.0000000000000004   0                    4.9915053254964245e-17    11                            2                           3                     0.00021591673908569802 -0.99999877218828848 -0.00043122159660993395        1.6510814267685653e-14              8.254137016858985e-14       
                       5.1195118312225298e-17                          53                                          2301.2947386470023                  -3.2747878808755363e-07                 3.1999269776460161e-19                9.4266202641532909e-23                 0.14389840506502583                        0.14389840506502583                          0.14389840506502583              1.2799707910584064e-18  4.0199502484483567   0.40000000000000002  4                    0                    4.9915053254964245e-17    12                            0                           4                     0.00021591673908569802 -0.99999877218828848 -0.00043122159660993395        0                                8.254137016858985e-14       
                       5.1193766589021059e-17                          59                                          2301.1089768180364                  -3.274082697675891e-07                -1.3517232042346172e-21                1.0390942386241789e-22                 0.15107545933877417                        0.15107545933877417                          0.15107545933877417              1.2799692360355077e-18  4.0199502484483567   0.40000000000000002  4                    0                    4.9913693443561688e-17    13                            1                           4                     0.0002268071581744528 -0.99999864636855762 -0.00045294059998411251        4.1281109457475772e-15              8.6669481114337434e-14       
                       5.1188362605182983e-17                          65                                          2300.3650002246168                  -3.2712653488752929e-07                -5.4039838380788868e-21                1.4715299090741961e-22                 0.17976478826240225                        0.17976478826240225                          0.17976478826240225              1.2799629352271458e-18  4.0199502484483567   0.40000000000000002  4                    0                    4.9908252516964929e-17    14                            2                           4                     0.0002703874766856337 -0.99999808189387607 -0.00053982320890312845        1.6512443782990309e-14              1.0318192489732774e-13       
                       5.1508353338989767e-17                          66                                          2301.073022404888                   -3.273000175168742e-07                 3.1999073380678644e-19                1.4715299090741961e-22                 0.17976478826240225                        0.17976478826240225                          0.17976478826240225              1.5999536690339323e-18  5.0249378105604459   0.5                  5                    0                    4.9908252516964929e-17    15                            0                           5                     0.0002703874766856337 -0.99999808189387607 -0.00053982320890312845        0                                1.0318192489732774e-13       
                       5.1507002222827159e-17                          72                                          2300.8875882300927                  -3.272298727355477e-07                -1.3511161626122729e-21                1.591313553484795e-22                 0.18693313636057909                        0.18693313636057909                          0.18693313636057909              1.5999516699521009e-18  5.0249378105604459   0.5                  5                    0                    4.9906891421519708e-17    16                            1                           5                     0.00028131708754962153 -0.99999792542881782 -0.00056160603177042481        4.1285087033315434e-15              1.0731043360065928e-13       
                       5.1501600652016089e-17                          78                                          2300.1449260563941                  -3.2694963171844232e-07                -5.4015708110695587e-21                2.117018596937847e-22                 0.21558759839316799                        0.21558759839316799                          0.21558759839316799              1.5999435728157331e-18  5.0249378105604459   0.5                  5                    0                    4.9901445377340662e-17    17                            2                           5                     0.00032505417128167609 -0.9999972384269612  -0.00064874401150847726        1.6514034813326173e-14              1.2382446841398544e-13       
                       5.1821589366579231e-17                          79                                          2300.8567196235667                  -3.2712456540715378e-07                 3.1998871456314665e-19                2.117018596937847e-22                 0.21558759839316799                        0.21558759839316799                          0.21558759839316799              1.9199322873788799e-18  6.029925372672535    0.60000000000000009  6.0000000000000009   0                    4.9901445377340662e-17    18                            0                           6                     0.00032505417128167609 -0.9999972384269612  -0.00064874401150847726        0                                1.2382446841398544e-13       
                       5.182023884705046e-17                          85                                          2300.6716160601936                  -3.2705479449058039e-07                -1.3505195287732262e-21                2.2600878245283628e-22                 0.22274721205269535                        0.22274721205269535                          0.22274721205269535              1.9199298221606833e-18  6.029925372672535    0.60000000000000009  6.0000000000000009   0                    4.9900083016107322e-17    19                            1                           6                     0.00033602290635842728 -0.99999705133265826 -0.00067059072428352128        4.1288968230730395e-15              1.279533652370585e-13       
                       5.1814839647612119e-17                          91                                          2299.9302801134813                  -3.2677604863930498e-07                -5.3991994383393187e-21                2.8787992203620407e-22                 0.2513666946090658                         0.2513666946090658                           0.2513666946090658               1.9199198404203695e-18  6.029925372672535    0.60000000000000009  6.0000000000000009   0                    4.9894631927269714e-17    20                            2                           6                     0.00037991648448757018 -0.999996241867391   -0.00075798435711306401        1.6515587292292158e-14              1.4446895252935066e-13       
# Table End
