# ODT 1.0
# Table Start
# Title: mmArchive Data Table, Wed Jun 16 18:45:39 EDT 2010
# Columns: {Oxs_RungeKuttaEvolve:evolve:Total energy} {Oxs_RungeKuttaEvolve:evolve:Energy calc count} {Oxs_RungeKuttaEvolve:evolve:Max dm/dt} Oxs_RungeKuttaEvolve:evolve:dE/dt {Oxs_RungeKuttaEvolve:evolve:Delta E} Oxs_UniformExchange:NiFe:Energy {Oxs_UniformExchange:NiFe:Max Spin Ang} {Oxs_UniformExchange:NiFe:Stage Max Spin Ang} {Oxs_UniformExchange:NiFe:Run Max Spin Ang} Oxs_UZeeman::Energy  Oxs_UZeeman::B       Oxs_UZeeman::Bx      Oxs_UZeeman::By      Oxs_UZeeman::Bz      Oxs_Demag::Energy    Oxs_TimeDriver::Iteration {Oxs_TimeDriver::Stage iteration} Oxs_TimeDriver::Stage Oxs_TimeDriver::mx   Oxs_TimeDriver::my   Oxs_TimeDriver::mz   {Oxs_TimeDriver::Last time step} {Oxs_TimeDriver::Simulation time}
# Units:                       J                                            {}                                        deg/ns                                 J/s                                  J                                  J                                  deg                                        deg                                          deg                              J                 mT                   mT                   mT                   mT                     J                       {}                            {}                          {}                   {}                   {}                   {}                          s                                 s                
                       5.8671498860221212e-17                          1                                           0.00055879835034237664                 -1.0829503650745093e-20                 0                                  4.1266253532223779e-17                 131.66949091318824                         131.66949091318824                           131.66949091318824               0                    0                    0                    0                    0                    1.7405245327997436e-17    0                             0                           0                     1.0092936604968241e-23  9.6892191407695116e-22  2.4223047851923778e-21        0                                0                         
                       5.8671498860221212e-17                          2                                           9.0151063734643895                  -1.2782769503023571e-11                 0                                  4.1266253532223779e-17                 131.66949091318824                         131.66949091318824                           131.66949091318824               5.8774717541114375e-39  1.0049875621120892   0.10000000000000001  1                    0                    1.7405245327997436e-17    1                             0                           1                     1.0092936604968241e-23  9.6892191407695116e-22  2.4223047851923778e-21        0                                0                         
                       5.8671485745405471e-17                          8                                           9.0351356280563024                  -1.2127089239431604e-11                -1.3114815747407849e-23                4.1266253539199861e-17                 131.66949070529887                         131.66949091318824                           131.66949091318824              -1.296191836630321e-23  1.0049875621120892   0.10000000000000001  1                    0                    1.740524516812397e-17    2                             1                           1                     8.3175951820748086e-06  3.5991872267971579e-05 -6.4981099877230708e-10        1.0537867892455351e-12              1.0537867892455351e-12       
                       5.8671438539118128e-17                          14                                          9.3258707899709137                  -1.0524573302845931e-11                -4.7206287337637467e-23                4.1266253474369522e-17                 131.66948792904998                         131.66949091318824                           131.66949091318824              -5.5211257435411147e-23  1.0049875621120892   0.10000000000000001  1                    0                    1.7405240276006046e-17    3                             2                           1                     5.9302795839082747e-05  0.00015091988385631798 -2.6494051991685401e-08        4.2151471569821405e-12              5.268933946227676e-12       
                       5.8671383327860694e-17                          15                                          18.218705541939304                  -4.6062169992272633e-11                -5.5211257435407691e-23                4.1266253474369522e-17                 131.66948792904998                         131.66948792904998                           131.66949091318824              -1.1042251487082229e-22  2.0099751242241783   0.20000000000000001  2                    0                    1.7405240276006046e-17    4                             0                           2                     5.9302795839082747e-05  0.00015091988385631798 -2.6494051991685401e-08        0                                5.268933946227676e-12       
                       5.867135953529051e-17                          21                                          18.288490487882051                  -4.5210631707402605e-11                -2.3792570183508933e-23                4.1266253442807604e-17                 131.66948677761164                         131.66948792904998                           131.66949091318824              -1.3194855299145491e-22  2.0099751242241783   0.20000000000000001  2                    0                    1.7405238041035894e-17    5                             1                           2                     7.1462393369518235e-05  0.00018028068285027082 -3.8788621660059092e-08        5.2144209576970671e-13              5.790376041997383e-12       
                       5.8671268079341032e-17                          27                                          18.668720922997704                  -4.2722635494572463e-11                -9.1455949471995191e-23                4.1266252985605289e-17                 131.66948042089103                         131.66948792904998                           131.66949091318824              -2.0906129459360551e-22  2.0099751242241783   0.20000000000000001  2                    0                    1.7405224155030342e-17    6                             2                           2                     0.00012892702311579111  0.00028406936438644151 -1.1961563434267104e-07        2.0857683830788268e-12              7.8761444250762098e-12       
                       5.8671163548693741e-17                          28                                          27.537498948728356                  -1.0138210343681737e-10                -1.0453064729680497e-22                4.1266252985605289e-17                 131.66948042089103                         131.66948042089103                           131.66949091318824              -3.1359194189040832e-22  3.0149626863362675   0.30000000000000004  3.0000000000000004   0                    1.7405224155030342e-17    7                             0                           3                     0.00012892702311579111  0.00028406936438644151 -1.1961563434267104e-07        0                                7.8761444250762098e-12       
                       5.8671128761138574e-17                          34                                          27.619551008070783                  -1.0030938338328583e-10                -3.4787555169658514e-23                4.1266252850788405e-17                 131.66947833993541                         131.66948042089103                           131.66949091318824              -3.4377108758398949e-22  3.0149626863362675   0.30000000000000004  3.0000000000000004   0                    1.7405219681437749e-17    8                             1                           3                     0.00014232542857636312  0.00031130826034209765 -1.4584906486066503e-07        3.4498412574387758e-13              8.2211285508200871e-12       
                       5.8670992848346499e-17                          40                                          28.011507402097521                  -9.6907952370072682e-11                -1.3591279206935396e-22                4.126625188234872e-17                 131.6694682422073                          131.66948042089103                           131.66949091318824              -4.5574494021477994e-22  3.0149626863362675   0.30000000000000004  3.0000000000000004   0                    1.7405196710937998e-17    9                             2                           3                     0.00020180678649896568  0.00041139597002765201 -2.8498739414278417e-07        1.3799365029755103e-12              9.6010650537955978e-12       
                       5.8670840933366427e-17                          41                                          36.869566500498294                  -1.7880865549604401e-10                -1.5191498007159526e-22                4.126625188234872e-17                 131.6694682422073                          131.6694682422073                            131.66949091318824              -6.0765992028637332e-22  4.0199502484483567   0.40000000000000002  4                    0                    1.7405196710937998e-17    10                            0                           4                     0.00020180678649896568  0.00041139597002765201 -2.8498739414278417e-07        0                                9.6010650537955978e-12       
                       5.867079503023019e-17                          47                                          36.957241395707698                  -1.7750703234522665e-10                -4.5903136234612082e-23                4.1266251621502383e-17                 131.66946521893061                         131.6694682422073                            131.66949091318824              -6.4656456172391561e-22  4.0199502484483567   0.40000000000000002  4                    0                    1.7405189973289532e-17    11                            1                           4                     0.00021583010343734118  0.00043762477576625084 -3.2581300114697262e-07        2.5766508537255532e-13              9.8587301391681531e-12       
                       5.8670614430733874e-17                          53                                          37.354947317980702                  -1.7317816731601081e-10                -1.805994963170483e-22                4.126625009536248e-17                 131.66945132768581                         131.6694682422073                            131.66949091318824              -7.935623602747574e-22  4.0199502484483567   0.40000000000000002  4                    0                    1.7405157897731674e-17    12                            2                           4                     0.00027634967460212905  0.00053597466439212719 -5.2459647095327717e-07        1.0306603414902213e-12              1.0889390480658374e-11       
                       5.8670416040143807e-17                          54                                          46.20697681354229                   -2.7837643283969739e-10                -1.9839059006869027e-22                4.126625009536248e-17                 131.66945132768581                         131.66945132768581                           131.66949091318824              -9.9195295034344682e-22  5.0249378105604459   0.5                  5                    0                    1.7405157897731674e-17    13                            0                           5                     0.00027634967460212905  0.00053597466439212719 -5.2459647095327717e-07        0                                1.0889390480658374e-11       
                       5.8670358966041524e-17                          60                                          46.298017575293073                  -2.7684287473409973e-10                -5.7074102283041678e-23                4.1266249697224221e-17                 131.66944735361753                         131.66945132768581                           131.66949091318824              -1.0396183669629295e-21  5.0249378105604459   0.5                  5                    0                    1.7405148887184268e-17    14                            1                           5                     0.00029075458773934336  0.00056161679620452649 -5.8033322610779385e-07        2.0559665780202591e-13              1.10949871384604e-11       
                       5.867013355283213e-17                          66                                          46.699545753015705                  -2.7158017903838453e-10                -2.2541320939829163e-22                4.1266247587805526e-17                 131.66942963847612                         131.66945132768581                           131.66949091318824              -1.2217311948400036e-21  5.0249378105604459   0.5                  5                    0                    1.7405107696221445e-17    15                            2                           5                     0.00035192366830666036  0.00065897308598429378 -8.3953887256988297e-07        8.2238663120810365e-13              1.1917373769668504e-11       
                       5.8669889206593156e-17                          67                                          55.547737379322143                  -4.0010843645109522e-10                -2.4434623896799944e-22                4.1266247587805526e-17                 131.66942963847612                         131.66942963847612                           131.66949091318824              -1.4660774338080041e-21  6.029925372672535    0.60000000000000009  6.0000000000000009   0                    1.7405107696221445e-17    16                            0                           6                     0.00035192366830666036  0.00065897308598429378 -8.3953887256988297e-07        0                                1.1917373769668504e-11       
                       5.8669820930769767e-17                          73                                          55.641077490884541                  -3.9834146280850589e-10                -6.8275823398774582e-23                4.1266247045684122e-17                 131.66942470737055                         131.66942963847612                           131.66949091318824              -1.5225235405567734e-21  6.029925372672535    0.60000000000000009  6.0000000000000009   0                    1.7405096408626194e-17    17                            1                           6                     0.00036658783589060942  0.00068423304557365197 -9.1037935819047471e-07        1.7102406773343051e-13              1.2088397837401934e-11       
                       5.8669550626112301e-17                          79                                          56.045491041919661                  -3.9214152498859853e-10                -2.7030465745520741e-22                4.126624433652148e-17                 131.6694031468779                          131.66942963847612                           131.66949091318824              -1.739806608952005e-21  6.029925372672535    0.60000000000000009  6.0000000000000009   0                    1.740504609619978e-17    18                            2                           6                     0.00042820846822533894  0.0007809512232356627 -1.2305280161554808e-06        6.8409627093372203e-13              1.2772494108335656e-11       
                       5.8669260658344149e-17                          80                                          64.891049608308393                  -5.4402074847598815e-10                -2.8996776815866543e-22                4.126624433652148e-17                 131.6694031468779                          131.6694031468779                            131.66949091318824              -2.0297743771106727e-21  7.0349129347846233   0.70000000000000007  7.0000000000000009   0                    1.740504609619978e-17    19                            0                           7                     0.00042820846822533894  0.0007809512232356627 -1.2305280161554808e-06        0                                1.2772494108335656e-11       
                       5.8669181161677271e-17                          86                                          64.986087906467588                  -5.4201953684726135e-10                -7.9496666874605808e-23                4.1266243645980303e-17                 131.66939725393098                         131.6694031468779                            131.66949091318824              -2.0950136180329621e-21  7.0349129347846233   0.70000000000000007  7.0000000000000009   0                    1.7405032529315002e-17    20                            1                           7                     0.00044306123376054268  0.00080594291138798312 -1.3166025572866665e-06        1.4639923467632826e-13              1.2918893343011985e-11       
# Table End
