# ODT 1.0
# Table Start
# Title: mmArchive Data Table, Wed Jun 16 18:45:45 EDT 2010
# Columns: {Oxs_RungeKuttaEvolve:evolve:Total energy} {Oxs_RungeKuttaEvolve:evolve:Energy calc count} {Oxs_RungeKuttaEvolve:evolve:Max dm/dt} Oxs_RungeKuttaEvolve:evolve:dE/dt {Oxs_RungeKuttaEvolve:evolve:Delta E} Oxs_UniformExchange:NiFe:Energy {Oxs_UniformExchange:NiFe:Max Spin Ang} {Oxs_UniformExchange:NiFe:Stage Max Spin Ang} {Oxs_UniformExchange:NiFe:Run Max Spin Ang} Oxs_UZeeman::Energy  Oxs_UZeeman::B       Oxs_UZeeman::Bx      Oxs_UZeeman::By      Oxs_UZeeman::Bz      Oxs_Demag::Energy    Oxs_TimeDriver::Iteration {Oxs_TimeDriver::Stage iteration} Oxs_TimeDriver::Stage Oxs_TimeDriver::mx   Oxs_TimeDriver::my   Oxs_TimeDriver::mz   {Oxs_TimeDriver::Last time step} {Oxs_TimeDriver::Simulation time}
# Units:                       J                                            {}                                        deg/ns                                 J/s                                  J                                  J                                  deg                                        deg                                          deg                              J                 mT                   mT                   mT                   mT                     J                       {}                            {}                          {}                   {}                   {}                   {}                          s                                 s                
                       5.6441388447898205e-17                          1                                           2369.9054836061591                  -3.7857089861026544e-07                 0                                  0                                   0                                          0                                            0                                0                    0                    0                    0                    0                    5.6441388447898205e-17    0                             0                           0                    -1                    0                    0                          0                                0                         
                       5.643987110113037e-17                          7                                           2369.7219839764721                  -3.7847509274214769e-07                -1.5173467678411603e-21                2.5124579349751601e-25                 0.0062799851903076959                        0.0062799851903076959                          0.0062799851903076959              0                    0                    0                    0                    0                    5.6439870849884569e-17    1                             1                           0                    -0.99999999746643298  9.6238498305642669e-06  1.9244578562641014e-05        4.0085986828235674e-15              4.0085986828235674e-15       
                       5.6433805552004412e-17                          13                                          2368.9870625916042                  -3.7809228954935308e-07                -6.0655491259515838e-21                6.2758532306488257e-24                 0.031384561641186505                        0.031384561641186505                          0.031384561641186505              0                    0                    0                    0                    0                    5.6433799276151186e-17    2                             2                           0                    -0.99999993669287524  4.8146861519802983e-05  9.6215691131775805e-05        1.603439473129427e-14              2.0042993414117836e-14       
                       5.6476025212096011e-17                          14                                          2375.9445495346727                  -3.8015030896658744e-07                 4.2219660091601088e-20                6.2758532306488257e-24                 0.031384561641186505                        0.031384561641186505                          0.031384561641186505              4.2219660091601088e-20  1.0049875621120892   0.10000000000000001  1                    0                    5.6433799276151186e-17    3                             0                           1                    -0.99999993669287524  4.8146861519802983e-05  9.6215691131775805e-05        0                                2.0042993414117836e-14       
                       5.6474505405745613e-17                          20                                          2375.762415158676                   -3.8005509055795935e-07                -1.5198063504036199e-21                9.0276761565684682e-24                 0.037640922160115074                        0.037640922160115074                          0.037640922160115074              4.2215479433940944e-20  1.0049875621120892   0.10000000000000001  1                    0                    5.6432280898635518e-17    4                             1                           1                    -0.99999990884504475  5.8041467030658669e-05  0.00011597055544850421        3.9984098121568406e-15              2.4041403226274676e-14       
                       5.6468429985055346e-17                          26                                          2375.0329595246044                  -3.7967463552235637e-07                -6.0754206902684162e-21                2.5013345863542567e-23                 0.06265103793540075                        0.06265103793540075                          0.06265103793540075              4.2198742622451205e-20  1.0049875621120892   0.10000000000000001  1                    0                    5.6426206229087031e-17    5                             2                           1                    -0.99999974689279481  9.7648405067358546e-05  0.00019498252609727608        1.5993639248627363e-14              4.0035042474902042e-14       
                       5.6510628727677791e-17                          27                                          2382.0078435622336                  -3.8179250467471617e-07                 4.2198742622451205e-20                2.5013345863542567e-23                 0.06265103793540075                        0.06265103793540075                          0.06265103793540075              8.439748524490241e-20  2.0099751242241783   0.20000000000000001  2                    0                    5.6426206229087031e-17    6                             0                           2                    -0.99999974689279481  9.7648405067358546e-05  0.00019498252609727608        0                                4.0035042474902042e-14       
                       5.6509106239294227e-17                          33                                          2381.8270701856914                  -3.8169787520421049e-07                -1.5224883835725025e-21                3.0238819984767608e-23                 0.068883830575430058                        0.068883830575430058                          0.068883830575430058              8.4388893900193989e-20  2.0099751242241783   0.20000000000000001  2                    0                    5.6424687106574045e-17    7                             1                           2                    -0.99999969376470899  0.00010781277112765155  0.00021524473693336745        3.9882320394852211e-15              4.4023274514387263e-14       
                       5.6503020057308087e-17                          39                                          2381.1030631974222                  -3.8131977429155123e-07                -6.0861819861339282e-21                5.6078167620109314e-23                 0.093799713133279977                        0.093799713133279977                          0.093799713133279977              8.4354499411296867e-20  2.0099751242241783   0.20000000000000001  2                    0                    5.6418609479729166e-17    8                             2                           2                    -0.99999943076215203  0.0001484996442823734  0.00029628581225712975        1.5952928157940884e-14              5.9976202672328141e-14       
                       5.6545197307013737e-17                          40                                          2388.0951907091858                  -3.8349750186652026e-07                 4.2177249705648439e-20                5.6078167620109314e-23                 0.093799713133279977                        0.093799713133279977                          0.093799713133279977              1.2653174911694529e-19  3.0149626863362675   0.30000000000000004  3.0000000000000004   0                    5.6418609479729166e-17    9                             0                           3                    -0.99999943076215203  0.0001484996442823734  0.00029628581225712975        0                                5.9976202672328141e-14       
                       5.6543671915746448e-17                          46                                          2387.9157739805983                  -3.8340346281869574e-07                -1.525391267286673e-21                6.3750578059279524e-23                 0.10000899559271074                        0.10000899559271074                          0.10000899559271074              1.2651851832417863e-19  3.0149626863362675   0.30000000000000004  3.0000000000000004   0                    5.6417089646844211e-17    10                            1                           3                    -0.99999935238264936  0.00015893277284621753  0.00031705243992992616        3.9780658815274496e-15              6.395426855385559e-14       
                       5.6537574089133653e-17                          52                                          2387.1971981448769                  -3.8302772201763957e-07                -6.0978266127911247e-21                9.9337062561110164e-23                 0.12483087600376239                        0.12483087600376239                          0.12483087600376239              1.2646555037798738e-19  3.0149626863362675   0.30000000000000004  3.0000000000000004   0                    5.6411009201693106e-17    11                            2                           3                    -0.99999898843759738  0.00020069557830253124  0.00040011090469945659        1.5912263526109798e-14              7.9866532079965389e-14       
                       5.6579729272592985e-17                          53                                          2394.206416694828                   -3.8526531669945891e-07                 4.2155183459329124e-20                9.9337062561110164e-23                 0.12483087600376239                        0.12483087600376239                          0.12483087600376239              1.6862073383731652e-19  4.0199502484483567   0.40000000000000002  4                    0                    5.6411009201693106e-17    12                            0                           4                    -0.99999898843759738  0.00020069557830253124  0.00040011090469945659        0                                7.9866532079965389e-14       
                       5.6578200759188102e-17                          59                                          2394.0283521679717                  -3.8517186956447282e-07                -1.5285134048839432e-21                1.094299056094209e-22                 0.13101670686210115                        0.13101670686210115                          0.13101670686210115              1.6860263610763001e-19  4.0199502484483567   0.40000000000000002  4                    0                    5.6409488693174868e-17    13                            1                           4                    -0.99999888483042609  0.00021139646858356746  0.00042137902929179473        3.9679118449254809e-15              8.3834443924890877e-14       
                       5.6572090411005018e-17                          65                                          2393.31518961345                    -3.8479849488528108e-07                -6.1103481830861392e-21                1.5465782958322322e-22                 0.15574481971114826                        0.15574481971114826                          0.15574481971114826              1.6853018402526325e-19  4.0199502484483567   0.40000000000000002  4                    0                    5.6403405569150169e-17    14                            2                           4                    -0.99999842003043593  0.00025423119263686143  0.00050644320730683736        1.5871647379701924e-14              9.9706091304592791e-14       
                       5.6614222957011331e-17                          66                                          2400.3413479492201                  -3.8709596535455629e-07                 4.2132546006315806e-20                1.5465782958322322e-22                 0.15574481971114826                        0.15574481971114826                          0.15574481971114826              2.1066273003157905e-19  5.0249378105604459   0.5                  5                    0                    5.6403405569150169e-17    15                            0                           5                    -0.99999842003043593  0.00025423119263686143  0.00050644320730683736        0                                9.9706091304592791e-14       
                       5.661269110380797e-17                          72                                          2400.1646310856581                  -3.8700311162784122e-07                -1.5318532033574038e-21                1.6714481275160726e-22                 0.16190725840478648                        0.16190725840478648                          0.16190725840478648              2.1063953915168411e-19  5.0249378105604459   0.5                  5                    0                    5.6401884419843545e-17    16                            1                           5                    -0.99999829121433359  0.00026519884127990855  0.00052820991887370745        3.9577704263256203e-15              1.0366386173091842e-13       
                       5.6606567363483477e-17                          78                                          2399.4568635729374                  -3.8663210910109189e-07                -6.1237403244935734e-21                2.2190932262911801e-22                 0.18654184169370763                        0.18654184169370763                          0.18654184169370763              2.1054669736885575e-19  5.0249378105604459   0.5                  5                    0                    5.6395798756792e-17    17                            2                           5                    -0.99999772562702427  0.00030910146002452877  0.00061526817378945438        1.5831081705302481e-14              1.194949434362209e-13       
                       5.6648676702957249e-17                          79                                          2406.4998116245715                  -3.889894640344049e-07                 4.2109339473771152e-20                2.2190932262911801e-22                 0.18654184169370763                        0.18654184169370763                          0.18654184169370763              2.5265603684262689e-19  6.029925372672535    0.60000000000000009  6.0000000000000009   0                    5.6395798756792e-17    18                            0                           6                    -0.99999772562702427  0.00030910146002452877  0.00061526817378945438        0                                1.194949434362209e-13       
                       5.6647141293883645e-17                          85                                          2406.3244377961323                  -3.8889720521635092e-07                -1.535409073604325e-21                2.367643646433367e-22                 0.19268094849191311                        0.19268094849191311                          0.19268094849191311              2.5262752787789379e-19  6.029925372672535    0.60000000000000009  6.0000000000000009   0                    5.6394277001641114e-17    19                            1                           6                    -0.99999757161579628  0.00032033486127433308  0.00063753057255798266        3.9476421124615718e-15              1.2344258554868248e-13       
                       5.664100329720354e-17                          91                                          2405.6220467276867                  -3.885285808916722e-07                -6.1379966801121819e-21                3.0096145061862728e-22                 0.21722224354379355                        0.21722224354379355                          0.21722224354379355              2.5251339595714769e-19  6.029925372672535    0.60000000000000009  6.0000000000000009   0                    5.6388188939795776e-17    20                            2                           6                    -0.99999690528916252  0.00036530134127908014  0.0007265713086848655        1.5790568449846287e-14              1.3923315399852876e-13       
# Table End
