# ODT 1.0
# Table Start
# Title: mmArchive Data Table, Mon Jan 30 00:27:19 EST 2023
# Columns: {Oxs_RungeKuttaEvolve:evolve:Total energy} {Oxs_RungeKuttaEvolve:evolve:Energy calc count} {Oxs_RungeKuttaEvolve:evolve:Max dm/dt} Oxs_RungeKuttaEvolve:evolve:dE/dt {Oxs_RungeKuttaEvolve:evolve:Delta E} Oxs_CubicAnisotropy::Energy Oxs_UniformExchange::Energy {Oxs_UniformExchange::Max Spin Ang} {Oxs_UniformExchange::Stage Max Spin Ang} {Oxs_UniformExchange::Run Max Spin Ang} Oxs_TransformZeeman::Energy Oxs_Demag::Energy    Oxs_TimeDriver::Iteration {Oxs_TimeDriver::Stage iteration} Oxs_TimeDriver::Stage Oxs_TimeDriver::mx   Oxs_TimeDriver::my   Oxs_TimeDriver::mz   {Oxs_TimeDriver::Last time step} {Oxs_TimeDriver::Simulation time}
# Units:                       J                                            {}                                        deg/ns                                 J/s                                  J                                J                           J                              deg                                    deg                                      deg                                J                      J                       {}                            {}                          {}                   {}                   {}                   {}                          s                                 s                
                       1.041916230588539e-16                          1                                           51340.422785800169                  -9.3386109285276754e-05                 0                               -3.3341261150746164e-19         1.0222539855191861e-16             177.64565071774456                     177.64565071774456                       177.64565071774456               -9.468348706559662e-21      2.3091054671493123e-18    0                             0                           0                    -0.0014150828821972649  0.0048307901564079913  0.00045548473956105414        0                                0                         
                       1.0417434485327156e-16                          7                                           51332.340192676595                  -9.3365550245234032e-05                -1.727820558234431e-20             -3.334089054364774e-19         1.0220848052186947e-16             177.64136790977955                     177.64565071774456                       177.64565071774456               -9.4687190348616906e-21      2.3087419558734357e-18    1                             1                           0                    -0.0014148806651146531  0.0048309774544302853  0.00045553973654609997        1.8503937997619155e-16              1.8503937997619155e-16       
                       1.041052700620708e-16                          13                                          51300.00852337078                   -9.3283354405277838e-05                -6.9074791200767284e-20             -3.3339408775316403e-19         1.0214084571527102e-16             177.62424124421372                     177.64565071774456                       177.64565071774456               -9.4701997250066388e-21      2.3072886342779472e-18    2                             2                           0                    -0.0014140720883661178  0.0048317263333958298  0.00045575969030801835        7.4015751990476618e-16              9.2519689988095763e-16       
                       1.0382957856005534e-16                          19                                          51170.661843896167                  -9.2955215778847976e-05                -2.7569150201545643e-19             -3.3333492275039338e-19         1.0187090268088413e-16             177.55581441792637                     177.64565071774456                       177.64565071774456               -9.4761125369384511e-21      2.3014869144585383e-18    3                             3                           0                    -0.0014108424467968385  0.0048347168495556248  0.00045663895982151203        2.9606300796190647e-15              3.8858269795000224e-15       
                       1.0273648179860646e-16                          25                                          50653.002555474755                  -9.1652951649457516e-05                -1.093096761448862e-18             -3.3309996198617607e-19         1.0080061688171993e-16             177.28375407672573                     177.64565071774456                       177.64565071774456               -9.4996059118610247e-21      2.2784644847845778e-18    4                             4                           0                    -0.0013979985306763556  0.004846599577824383  0.0004601473932907467        1.1842520318476259e-14              1.5728347297976282e-14       
                       1.0273648179860646e-16                          26                                          50653.002555474755                  -9.1652951649457516e-05                 0                               -3.3309996198617607e-19         1.0080061688171993e-16             177.28375407672573                     177.28375407672573                       177.64565071774456               -9.4996059118610247e-21      2.2784644847845778e-18    5                             0                           1                    -0.0013979985306763556  0.004846599577824383  0.0004601473932907467        0                                1.5728347297976282e-14       
                       9.8515414421497418e-17                          32                                          49544.255057616982                  -8.6606822176352055e-05                -4.2210673771090583e-18             -3.3218774953221724e-19         9.6667907518544205e-17             176.23556705519482                     177.28375407672573                       177.64565071774456               -9.591137471998856e-21      2.1892857899574246e-18    6                             1                           1                    -0.0013478166223096861  0.0048929035160695002  0.00047404808509897395        4.7370081273905036e-14              6.3098428571881314e-14       
                       8.3843236652237779e-17                          38                                          46219.771214849556                  -6.8899353988833586e-05                -1.4672177769259639e-17             -3.2899718863732025e-19         8.2305745989230702e-17             174.47979814815477                     177.28375407672573                       177.64565071774456               -9.9235712663086331e-21      1.8764114229107039e-18    7                             2                           1                    -0.0011659435849792267  0.0050612025872691221  0.00052782419491501835        1.8948032509562014e-13              2.5257875366750144e-13       
                       6.6859987676362741e-17                          44                                          40671.830810605054                  -4.8296757109142944e-05                -1.6983248975875037e-17             -3.2543012240927009e-19         6.5684514747585997e-17             177.87317918520276                     177.87317918520276                       177.87317918520276               -1.0364588911882299e-20      1.5112676400978935e-18    8                             3                           1                    -0.00094012837894968883  0.0052848645053403826  0.00060663108523855845        2.9289389046343048e-13              5.4547264413093193e-13       
                       5.4459411127213525e-17                          50                                          34715.47481492762                   -3.3458508067964115e-05                -1.2400576549149211e-17             -3.2294344994020649e-19         5.3546679689146941e-17             177.62972008461801                     177.87317918520276                       177.87317918520276               -1.0780865736454303e-20      1.2464557537432447e-18    9                             4                           1                    -0.00076332393061503653  0.0054964321665008026  0.0006850019653026672        3.0696763027184348e-13              8.524402744027754e-13       
                       5.4459411127213525e-17                          51                                          34715.47481492762                   -3.3458508067964115e-05                 0                               -3.2294344994020649e-19         5.3546679689146941e-17             177.62972008461801                     177.62972008461801                       177.87317918520276               -1.0780865736454303e-20      1.2464557537432447e-18    10                            0                           2                    -0.00076332393061503653  0.0054964321665008026  0.0006850019653026672        0                                8.524402744027754e-13       
                       4.5606934222852576e-17                          57                                          31662.637749334423                  -2.3183611142262849e-05                -8.8524769043609492e-18             -3.2103936689560851e-19         4.4876155062243804e-17             178.47297686842992                     178.47297686842992                       178.47297686842992               -1.1194987879779327e-20      1.0630135153841672e-18    11                            1                           2                    -0.00062846548363521741  0.0057072668993737663  0.00076220550216182803        3.1642342925129717e-13              1.1688637036540726e-12       
                       3.9171918344875388e-17                          63                                          28725.575118286317                  -1.6030302808837365e-05                -6.4350158779771932e-18             -3.1939168423691888e-19         3.8563966696771145e-17             176.86984220615761                     178.47297686842992                       178.47297686842992               -1.1629199681948252e-20      9.3897253202310867e-19    12                            2                           2                    -0.00052343015393982548  0.0059285915742935506  0.00084062371787831179        3.324079822979623e-13              1.5012716859520348e-12       
                       3.44912243870487e-17                          69                                          24957.229679069143                  -1.110888059194352e-05                -4.680693957826687e-18             -3.1796862707156623e-19         3.3960267853908784e-17             178.81939003909855                     178.81939003909855                       178.81939003909855               -1.2089777675755986e-20      8.6101493788723817e-19    13                            3                           2                    -0.00044228857450127337  0.0061635276222991933  0.0009213232693669692        3.4945071835234822e-13              1.8507224043043831e-12       
                       3.10356647767298e-17                          75                                          21524.939411007141                  -7.7215085431404743e-06                -3.4555596103188997e-18             -3.168312717136876e-19         3.0548546888980786e-17             176.22317935801507                     178.81939003909855                       178.81939003909855               -1.2585448061917441e-20      8.1653460752461589e-19    14                            4                           2                    -0.00038071407414031958  0.0064164560485136333  0.0010057123562291093        3.7192285676241161e-13              2.2226452610667946e-12       
                       3.10356647767298e-17                          76                                          21524.939411007141                  -7.7215085431404743e-06                 0                               -3.168312717136876e-19         3.0548546888980786e-17             176.22317935801507                     176.22317935801507                       178.81939003909855               -1.2585448061917441e-20      8.1653460752461589e-19    15                            0                           3                    -0.00038071407414031958  0.0064164560485136333  0.0010057123562291093        0                                2.2226452610667946e-12       
                       2.8440407820942556e-17                          82                                          19194.524191735229                  -5.3891334856782388e-06                -2.5952569557872461e-18             -3.1608804060889413e-19         2.7974626269374147e-17             179.41239871430579                     179.41239871430579                       179.41239871430579               -1.312660077087731e-20      7.9499619294817852e-19    16                            1                           3                    -0.00033579475153037064  0.0066926189439040738  0.0010947460399539847        4.0129091886125976e-13              2.6239361799280542e-12       
                       2.6492202256850896e-17                          88                                          16717.313944259906                  -3.8111603911229295e-06                -1.9482055640916561e-18             -3.1583952453287115e-19         2.6032810324590434e-17             177.23841901644496                     179.41239871430579                       179.41239871430579               -1.3713225274354827e-20      7.8894468206768959e-19    17                            2                           3                    -0.00030558776485569285  0.0069919682472331475  0.0011875070220217637        4.291038361362826e-13              3.0530400160643367e-12       
                       2.499756732338207e-17                          94                                          14188.792423042278                  -2.7388743851793451e-06                -1.4946349334688259e-18             -3.160571148479487e-19         2.4533871648232214e-17             177.98427761767346                     179.41239871430579                       179.41239871430579               -1.4355919094792721e-20      7.9410870909259985e-19    18                            3                           3                    -0.00028731108638237478  0.007319888614884959  0.0012852570753899225        4.6216106373042776e-13              3.5152010797947646e-12       
                       2.3819176011146993e-17                          100                                         11680.452003644912                  -2.0062683255540213e-06                -1.1783913122350781e-18             -3.1660318783417749e-19         2.3341498906689043e-17             178.79632822997644                     179.41239871430579                       179.41239871430579               -1.5069860794450495e-20      8.0935015308657968e-19    19                            4                           3                    -0.0002787682039657399  0.0076841161735843469  0.0013901339456254243        5.0268359788155137e-13              4.0178846776763159e-12       
                       2.3819176011146993e-17                          101                                         11680.452003644912                  -2.0062683255540213e-06                 0                               -3.1660318783417749e-19         2.3341498906689043e-17             178.79632822997644                     178.79632822997644                       179.41239871430579               -1.5069860794450495e-20      8.0935015308657968e-19    20                            0                           4                    -0.0002787682039657399  0.0076841161735843469  0.0013901339456254243        0                                4.0178846776763159e-12       
                       2.2859639866671534e-17                          107                                         11178.048922851865                  -1.5032139631421921e-06                -9.5953614447545856e-19             -3.173289200960279e-19         2.2358030543710683e-17             177.35347500221732                     178.79632822997644                       179.41239871430579               -1.5874562884805702e-20      8.3481280594168602e-19    21                            1                           4                    -0.00027834125406400549  0.0080946120617209887  0.0015044742797316458        5.5303938592018589e-13              4.5709240635965022e-12       
                       2.2052846739261146e-17                          113                                         10325.509128405945                  -1.1561151177077957e-06                -8.0679312741038693e-19             -3.1814311256044907e-19         2.1517182841748822e-17             177.14358504507331                     178.79632822997644                       179.41239871430579               -1.6789088220586713e-20      8.7059609829336151e-19    22                            2                           4                    -0.00028469183498144873  0.0085611309969531313  0.0016297653327923675        6.1302261970972565e-13              5.1839466833062275e-12       
                       2.1362126533184243e-17                          119                                         9083.7254070148429                  -9.1796535305787303e-07                -6.9072020607690623e-19             -3.1896729529665684e-19         2.078290958990814e-17             178.3092778963788                      178.79632822997644                       179.41239871430579               -1.7814433066308096e-20      9.159986716390686e-19    23                            3                           4                    -0.00029636851617942888  0.0090842427563190328  0.0017644278756965286        6.7197393306244629e-13              5.8559206163686735e-12       
                       2.0741696262693526e-17                          125                                         8641.150052204539                   -7.5176192022831168e-07                -6.2043027049071628e-19             -3.1972523525353216e-19         2.0108439822393285e-17             178.78600446839906                     178.79632822997644                       179.41239871430579               -1.8977731058844006e-20      9.7195940661261576e-19    24                            4                           4                    -0.00031237620773254802  0.0096778886226897582  0.001909665700976369        7.4899592306470807e-13              6.6049165394333813e-12       
                       2.0741696262693526e-17                          126                                         8641.150052204539                   -7.5176192022831168e-07                 0                               -3.1972523525353216e-19         2.0108439822393285e-17             178.78600446839906                     178.78600446839906                       179.41239871430579               -1.8977731058844006e-20      9.7195940661261576e-19    25                            0                           5                    -0.00031237620773254802  0.0096778886226897582  0.001909665700976369        0                                6.6049165394333813e-12       
                       2.0161948306195721e-17                          132                                         9317.0390651160706                  -6.3685301746350186e-07                -5.7974795649780504e-19             -3.2034499360648654e-19         1.9462759696933826e-17             178.33390162348326                     178.78600446839906                       179.41239871430579               -2.0297369855632191e-20      1.0398309727240117e-18    26                            1                           5                    -0.0003316679065609826  0.010351616030781906  0.0020634294011756577        8.4070704709812558e-13              7.4456235865315072e-12       
                       1.9606240948648772e-17                          138                                         9305.6346864464831                  -5.5970445907001499e-07                -5.5570735754694842e-19             -3.2081668989100765e-19         1.882878544441274e-17             177.44807400922124                     178.78600446839906                       179.41239871430579               -2.1760804144691647e-20      1.120032998271731e-18    27                            2                           5                    -0.00035192825183841611  0.011099310901937857  0.0022154414671379328        9.3392141265811462e-13              8.3795449991896216e-12       
                       1.9041643895665585e-17                          144                                         9522.6162991800975                  -5.0753309973432591e-07                -5.6459705298318806e-19             -3.2120235459743953e-19         1.8170490057179392e-17             174.45686759796862                     178.78600446839906                       179.41239871430579               -2.3385979570297059e-20      1.2157421726539306e-18    28                            3                           5                    -0.00036926367061702078  0.011930717764872187  0.0023486266895684856        1.0626018668927344e-12              9.442146866082356e-12       
                       1.8452122674872241e-17                          150                                         8938.1417970115817                  -4.7299588957156881e-07                -5.8952122079334293e-19             -3.2156116981669294e-19         1.7470593856994158e-17             175.71373779871368                     178.78600446839906                       179.41239871430579               -2.5125128294602844e-20      1.3282151159893786e-18    29                            4                           5                    -0.00037522737470209336  0.012822545679023181  0.00241943680268522        1.2063095959808858e-12              1.0648456462063243e-11       
                       1.8452122674872241e-17                          151                                         8938.1417970115817                  -4.7299588957156881e-07                 0                               -3.2156116981669294e-19         1.7470593856994158e-17             175.71373779871368                     175.71373779871368                       179.41239871430579               -2.5125128294602844e-20      1.3282151159893786e-18    30                            0                           6                    -0.00037522737470209336  0.012822545679023181  0.00241943680268522        0                                1.0648456462063243e-11       
                       1.7843879415952452e-17                          157                                         8730.5381108976508                  -4.5122698198229173e-07                -6.0824325891979041e-19             -3.2194337531644893e-19         1.6738689839405062e-17             175.91678914054359                     175.91678914054359                       179.41239871430579               -2.6853550621576457e-20      1.4539865024854156e-18    31                            1                           6                    -0.00035829991743434222  0.013712622633109859  0.002356008140051311        1.3190063837500203e-12              1.1967462845813263e-11       
                       1.7250478170570738e-17                          163                                         9438.9374151713237                  -4.3710364389939853e-07                -5.9340124538171333e-19             -3.2234339286521714e-19         1.6019077840582283e-17             171.71948344529287                     175.91678914054359                       179.41239871430579               -2.8420042747092321e-20      1.5821637656007647e-18    32                            2                           6                    -0.00031545581053742875  0.014524401048999927  0.0020984111423408298        1.3369978348484576e-12              1.3304460680661721e-11       
                       1.6679657163748918e-17                          169                                         11552.24441253236                   -4.2404454960429804e-07                -5.708210068218205e-19             -3.2270548002139927e-19         1.5325892730092229e-17             174.19626657621805                     175.91678914054359                       179.41239871430579               -2.9831398463567958e-20      1.706301312141656e-18    33                            3                           6                    -0.00025652127360533544  0.015260983233756159  0.0016236179562724817        1.3252555206440281e-12              1.462971620130575e-11       
                       1.6126581678621366e-17                          175                                         12999.073057419531                  -4.0742915253091367e-07                -5.5307548512755199e-19             -3.2306870956510586e-19         1.4657358007410146e-17             173.5891152665574                      175.91678914054359                       179.41239871430579               -3.1188609625024226e-20      1.8234809904013512e-18    34                            4                           6                    -0.00019529789308564055  0.015973239091992702  0.00092143226415569756        1.3289858756484058e-12              1.5958702076954153e-11       
# Table End
