# ODT 1.0
# Table Start
# Title: mmArchive Data Table, Wed Jun 11 15:41:18 EDT 2014
# Columns: {Oxs_RungeKuttaEvolve:evolve:Total energy} {Oxs_RungeKuttaEvolve:evolve:Energy calc count} {Oxs_RungeKuttaEvolve:evolve:Max dm/dt} Oxs_RungeKuttaEvolve:evolve:dE/dt {Oxs_RungeKuttaEvolve:evolve:Delta E} Oxs_UniformExchange:NiFe:Energy {Oxs_UniformExchange:NiFe:Max Spin Ang} {Oxs_UniformExchange:NiFe:Stage Max Spin Ang} {Oxs_UniformExchange:NiFe:Run Max Spin Ang} Oxs_UZeeman::Energy  Oxs_UZeeman::B       Oxs_UZeeman::Bx      Oxs_UZeeman::By      Oxs_UZeeman::Bz      Oxs_Demag::Energy    Oxs_TimeDriver::Iteration {Oxs_TimeDriver::Stage iteration} Oxs_TimeDriver::Stage Oxs_TimeDriver::mx   Oxs_TimeDriver::my   Oxs_TimeDriver::mz   {Oxs_TimeDriver::Last time step} {Oxs_TimeDriver::Simulation time}
# Units:                       J                                            {}                                        deg/ns                                 J/s                                  J                                  J                                  deg                                        deg                                          deg                              J                 mT                   mT                   mT                   mT                     J                       {}                            {}                          {}                   {}                   {}                   {}                          s                                 s                
                       4.9942190359097734e-17                          1                                           2302.235615548178                   -3.2822702264765549e-07                 0                                  0                                   0                                          0                                            0                                0                    0                    0                    0                    0                    4.9942190359097734e-17    0                             0                           0                     0                   -1                    0                          0                                0                         
                       4.9940836103858428e-17                          7                                           2302.0485729508828                  -3.2815501342742019e-07                -1.3542552393029501e-21                2.3652659772919724e-25                 0.0072115916047412187                        0.0072115916047412187                          0.0072115916047412187              0                    0                    0                    0                    0                    4.9940835867331835e-17    1                             1                           0                     1.0732990792175031e-05 -0.99999999692741959 -2.1464429169581393e-05        4.1264238707114198e-15              4.1264238707114198e-15       
                       4.9935422052204989e-17                          13                                          2301.2994578545026                  -3.2786731609625332e-07                -5.4140516534431965e-21                5.9082248607649095e-24                 0.03603924330429048                        0.03603924330429048                          0.03603924330429048              0                    0                    0                    0                    0                    4.9935416143980124e-17    2                             2                           0                     5.368359794730258e-05 -0.99999992321918352 -0.0001073283760593076        1.6505695482845679e-14              2.0632119353557098e-14       
                       4.9913813197703243e-17                          19                                          2298.2879736036089                  -3.2672195049053529e-07                -2.16088545017472e-20                1.0387308883555965e-22                 0.15104908250633781                        0.15104908250633781                          0.15104908250633781              0                    0                    0                    0                    0                    4.9913709324614404e-17    3                             3                           0                     0.00022578437599290966 -0.99999864795871063 -0.00045088330313394049        6.6022781931382717e-14              8.6654901284939812e-14       
                       4.9828125432782305e-17                          25                                          2286.0074995576679                  -3.222266827700966e-07                -8.5687764920935474e-20                1.6791251854391784e-21                 0.6061932499380539                         0.6061932499380539                           0.6061932499380539               0                    0                    0                    0                    0                    4.9826446307596867e-17    4                             4                           0                     0.00091896392300696314 -0.99997800332363096 -0.0018266545334415976        2.6409112772553087e-13              3.5074602901047067e-13       
                       5.0148088987000333e-17                          26                                          2286.7583538818931                  -3.2241016445333823e-07                 3.1996355421802573e-19                1.6791251854391784e-21                 0.6061932499380539                         0.6061932499380539                           0.6061932499380539               3.1996355421802573e-19  1.0049875621120892   0.10000000000000001  1                    0                    4.9826446307596867e-17    5                             0                           1                     0.00091896392300696314 -0.99997800332363096 -0.0018266545334415976        0                                3.5074602901047067e-13       
                       5.0146749725751722e-17                          32                                          2286.5630607739486                  -3.2234075659652814e-07                -1.3392612486093393e-21                1.7187752564623803e-21                 0.61328962225687411                        0.61328962225687411                          0.61328962225687411              3.1996303542826589e-19  1.0049875621120892   0.10000000000000001  1                    0                    4.9825067915066993e-17    6                             1                           1                     0.00092995768583789898 -0.99997748148191468 -0.0018483754082231872        4.1543523756558042e-15              3.5490038138612649e-13       
                       5.0141395562103221e-17                          38                                          2285.7810007337303                  -3.2206346229404068e-07                -5.3541636484982503e-21                1.8819140346149028e-21                 0.6416551876152875                         0.6416551876152875                           0.6416551876152875               3.1996094027828427e-19  1.0049875621120892   0.10000000000000001  1                    0                    4.9819552707790322e-17    7                             2                           1                     0.00097395166254821575 -0.99997533353589307 -0.0019352649198777414        1.6617409502623217e-14              3.715177908887497e-13       
                       5.0120024852373091e-17                          44                                          2282.6386511688702                  -3.2095966951043084e-07                -2.1370709730132145e-20                2.6067575123312699e-21                 0.75479745464226078                        0.75479745464226078                          0.75479745464226078              3.1995224053016119e-19  1.0049875621120892   0.10000000000000001  1                    0                    4.9797465854330595e-17    8                             3                           1                     0.0011502304177642537 -0.99996577469852999 -0.002282918617656603        6.6469638010492868e-14              4.3798742889924253e-13       
                       5.0035267158771852e-17                          50                                          2269.8493966631609                  -3.1663003074976148e-07                -8.4757693601236189e-20                6.6419595928087487e-21                 1.2021713642613345                         1.2021713642613345                           1.2021713642613345               3.1991237996929475e-19  1.0049875621120892   0.10000000000000001  1                    0                    4.9708712819209751e-17    9                             4                           1                     0.0018601936351743998 -0.99991220676756343 -0.003675028775940125        2.6587855204197147e-13              7.0386598094121405e-13       
                       5.0355179538741152e-17                          51                                          2270.6609034645317                  -3.168304692117221e-07                 3.1991237996929475e-19                6.6419595928087487e-21                 1.2021713642613345                         1.2021713642613345                           1.2021713642613345               6.398247599385895e-19  2.0099751242241783   0.20000000000000001  2                    0                    4.9708712819209751e-17    10                            0                           2                     0.0018601936351743998 -0.99991220676756343 -0.003675028775940125        0                                7.0386598094121405e-13       
                       5.0353854121995634e-17                          57                                          2270.4577362767536                  -3.1676363843572338e-07                -1.3254167455147323e-21                6.7197299702239045e-21                 1.2091441633693882                         1.2091441633693882                           1.2091441633693882               6.3982337512904723e-19  2.0099751242241783   0.20000000000000001  2                    0                    4.9707311016896362e-17    11                            1                           2                     0.0018714553026027065 -0.99991116916939649 -0.0036970144603133428        4.1838039248859567e-15              7.0804978486609999e-13       
                       5.0348555248983091e-17                          63                                          2269.6442375385859                  -3.1649664977904471e-07                -5.2988730125443698e-21                7.0351669317579079e-21                 1.2370142888909685                         1.2370142888909685                           1.2370142888909685               6.3981779638320937e-19  2.0099751242241783   0.20000000000000001  2                    0                    4.9701702285668126e-17    12                            2                           2                     0.0019165211923217876 -0.99990695896799675 -0.0037849629906455016        1.6735215699543827e-14              7.2478500056564384e-13       
                       5.032740430393037e-17                          69                                          2266.3770556836412                  -3.1543403611109635e-07                -2.1150945052721653e-20                8.3662795620460735e-21                 1.3481565632871602                         1.3481565632871602                           1.3481565632871602               6.3979485066082677e-19  2.0099751242241783   0.20000000000000001  2                    0                    4.9679243173707497e-17    13                            3                           2                     0.0020970923099693684 -0.99988916338853862 -0.0041368492423487476        6.6940862798175307e-14              7.9172586336381913e-13       
                       5.0243503317236252e-17                          75                                          2253.1032610709017                  -3.1126837677967762e-07                -8.3900986694114145e-20                1.4780128440757773e-20                 1.787246310693704                          1.787246310693704                            1.787246310693704                6.3969306360267989e-19  2.0099751242241783   0.20000000000000001  2                    0                    4.9589030125192815e-17    14                            4                           2                     0.0028243001187357852 -0.99980284189106083 -0.0055458329199054692        2.6776345119270123e-13              1.0594893145565204e-12       
                       5.0563349849037596e-17                          76                                          2253.9742110586485                  -3.1148550147262573e-07                 3.1984653180133995e-19                1.4780128440757773e-20                 1.787246310693704                          1.787246310693704                            1.787246310693704                9.5953959540401989e-19  3.0149626863362675   0.30000000000000004  3.0000000000000004   0                    4.9589030125192815e-17    15                            0                           3                     0.0028243001187357852 -0.99980284189106083 -0.0055458329199054692        0                                1.0594893145565204e-12       
                       5.056203714239671e-17                          82                                          2253.7635481396733                  -3.1142122305069525e-07                -1.3127066408835395e-21                1.4894780173994417e-20                 1.7940875174172053                         1.7940875174172053                           1.7940875174172053               9.5953699865003425e-19  3.0149626863362675   0.30000000000000004  3.0000000000000004   0                    4.9587605363572681e-17    16                            1                           3                     0.0028358370662179251 -0.99980129063374079 -0.005568091881905492        4.2147775930133791e-15              1.0637040921495337e-12       
                       5.0556789022930177e-17                          88                                          2252.9201244712062                  -3.1116444078157721e-07                -5.2481194665321134e-21                1.5357564239233938e-20                 1.821430186835258                          1.821430186835258                            1.821430186835258                9.5952655301663526e-19  3.0149626863362675   0.30000000000000004  3.0000000000000004   0                    4.958190490567431e-17    17                            2                           3                     0.0028820043842354014 -0.99979502649741836 -0.0056571333004188738        1.6859110372053516e-14              1.0805632025215872e-12       
                       5.0535839702386675e-17                          94                                          2249.5341710505877                  -3.1014260348648317e-07                -2.0949320543504787e-20                1.7275218385984513e-20                 1.9304453683687983                         1.9304453683687983                           1.9304453683687983               9.5948383463268512e-19  3.0149626863362675   0.30000000000000004  3.0000000000000004   0                    4.9559080649368003e-17    18                            3                           3                     0.0030669861408635373 -0.99976902635646658 -0.0060133875414547294        6.7436441488214066e-14              1.1479996440098013e-12       
                       5.0452723001783774e-17                          100                                         2235.8001496892753                  -3.0613921628509072e-07                -8.3116700602897969e-20                2.599009950521652e-20                 2.360757853084587                          2.360757853084587                            2.360757853084587                9.5929811596379258e-19  3.0149626863362675   0.30000000000000004  3.0000000000000004   0                    4.9467434786314768e-17    19                            4                           3                     0.0038119150921705042 -0.99965006230483422 -0.0074397857706984495        2.6974576595285626e-13              1.4177454099626575e-12       
                       5.0772489040438376e-17                          101                                         2236.7292946992061                  -3.063727837485499e-07                 3.1976603865459753e-19                2.599009950521652e-20                 2.360757853084587                          2.360757853084587                            2.360757853084587                1.2790641546183901e-18  4.0199502484483567   0.40000000000000002  4                    0                    4.9467434786314768e-17    20                            0                           4                     0.0038119150921705042 -0.99965006230483422 -0.0074397857706984495        0                                1.4177454099626575e-12       
                       5.0771187922728495e-17                          107                                         2236.5115156223442                  -3.0631103172884102e-07                -1.3011177098801012e-21                2.6140451692052126e-20                 2.3674597645328803                         2.3674597645328803                           2.3674597645328803               1.2790600001003333e-18  4.0199502484483567   0.40000000000000002  4                    0                    4.9465987470936109e-17    21                            1                           4                     0.0038237349411448891 -0.99964799857249975 -0.0074623265806576565        4.2472730260715582e-15              1.421992682988729e-12       
                       5.0765986072576109e-17                          113                                         2235.6396855411099                  -3.0606435162246374e-07                -5.201850152384937e-21                2.6745864575096574e-20                 2.3942442248645879                         2.3942442248645879                           2.3942442248645879               1.2790433046397817e-18  4.0199502484483567   0.40000000000000002  4                    0                    4.9460196903361228e-17    22                            2                           4                     0.0038710341869616308 -0.99963968516852542 -0.0075524951653462872        1.6989092104286233e-14              1.4389817750930154e-12       
                       5.0745220447181553e-17                          119                                         2232.1410379037875                  -3.0508286707558446e-07                -2.0765625394556962e-20                2.9231273252741456e-20                 2.5010102365865086                         2.5010102365865086                           2.5010102365865086               1.2789752872257907e-18  4.0199502484483567   0.40000000000000002  4                    0                    4.9437013886703016e-17    23                            3                           4                     0.0040605488005351562 -0.99960549802520238 -0.0079132544538254978        6.7956368417144932e-14              1.5069381435101602e-12       
                       5.0662816447163665e-17                          125                                         2217.9711320548395                  -3.0123994759454633e-07                -8.2404000017886954e-20                4.0173477695930459e-20                 2.9220719566012483                         2.9220719566012483                           2.9220719566012483               1.2786836155920571e-18  4.0199502484483567   0.40000000000000002  4                    0                    4.9343959353875679e-17    24                            4                           4                     0.0048236912867255996 -0.99945394380996699 -0.0093576145722897627        2.7182547366857973e-13              1.77876361717874e-12       
                       5.0982487351061681e-17                          126                                         2218.9571869685296                  -3.0148974106270955e-07                 3.1967090389801426e-19                4.0173477695930459e-20                 2.9220719566012483                         2.9220719566012483                           2.9220719566012483               1.5983545194900715e-18  5.0249378105604459   0.5                  5                    0                    4.9343959353875679e-17    25                            0                           5                     0.0048236912867255996 -0.99945394380996699 -0.0093576145722897627        0                                1.77876361717874e-12       
                       5.0981196712793396e-17                          132                                         2218.7326718275126                  -3.0143048774845466e-07                -1.2906382682834246e-21                4.035841077781611e-20                 2.9286271676804536                         2.9286271676804536                           2.9286271676804536               1.5983484602922977e-18  5.0249378105604459   0.5                  5                    0                    4.934248984172328e-17    26                            1                           5                     0.0048358019079154189 -0.99945136787347744 -0.0093804459001221724        4.2812903537713599e-15              1.7830449075325113e-12       
                       5.0976036694445242e-17                          138                                         2217.8339557844338                  -3.0119379856383201e-07                -5.1600183481554071e-21                4.1101980090462049e-20                 2.9548238552079966                         2.9548238552079966                           2.9548238552079966               1.5983241276119693e-18  5.0249378105604459   0.5                  5                    0                    4.9336610586742808e-17    27                            2                           5                     0.0048842645784979927 -0.9994410062153305  -0.009471776326530134        1.712516141508544e-14              1.8001700689475968e-12       
                       5.0955437021511237e-17                          144                                         2214.2286966466186                  -3.0025221453030805e-07                -2.0599672934003793e-20                4.4137348130087741e-20                 3.0592233462149205                         3.0592233462149205                           3.0592233462149205               1.598225265882696e-18  5.0249378105604459   0.5                  5                    0                    4.9313074407498451e-17    28                            3                           5                     0.0050784382621108619 -0.99939863500289594 -0.0098371792982446266        6.8500645660341759e-14              1.8686707146079385e-12       
                       5.0873674881075514e-17                          150                                         2199.6472326070925                  -2.9656783753670983e-07                -8.1762140435721363e-20                5.7237256653912626e-20                 3.4705791913207711                         3.4705791913207711                           3.4705791913207711               1.5978055265138846e-18  5.0249378105604459   0.5                  5                    0                    4.9218632097907719e-17    29                            4                           5                     0.0058603027429904751 -0.99921448434547677 -0.011300054747715988        2.7400258264136703e-13              2.1426732972493055e-12       
                       5.1193235986378293e-17                          151                                         2200.6888772959937                  -2.9683366656315997e-07                 3.195611053027769e-19                5.7237256653912626e-20                 3.4705791913207711                         3.4705791913207711                           3.4705791913207711               1.9173666318166613e-18  6.029925372672535    0.60000000000000009  6.0000000000000009   0                    4.9218632097907719e-17    30                            0                           6                     0.0058603027429904751 -0.99921448434547677 -0.011300054747715988        0                                2.1426732972493055e-12       
                       5.1191954728445596e-17                          157                                         2200.4580059869286                  -2.9677688222673432e-07                -1.2812579326943912e-21                5.7455715166235355e-20                 3.4769805761921364                         3.4769805761921364                           3.4769805761921364               1.9173583187216504e-18  6.029925372672535    0.60000000000000009  6.0000000000000009   0                    4.921714069455771e-17    31                            1                           6                     0.005872712259952572 -0.9992113955601879  -0.011323185359156445        4.3168301062496105e-15              2.1469901273555551e-12       
                       5.1186832145927668e-17                          163                                         2199.5339234945768                  -2.9655006458909862e-07                -5.122582517931568e-21                5.8333225334344696e-20                 3.5025610422226299                         3.5025610422226299                           3.5025610422226299               1.9173249521513444e-18  6.029925372672535    0.60000000000000009  6.0000000000000009   0                    4.9211173968441976e-17    32                            2                           6                     0.0059223708639756243 -0.99919898299855592 -0.01141571268524617        1.7267320424998442e-14              2.1642574477805537e-12       
                       5.1166380848958036e-17                          169                                         2195.8281294603225                  -2.9564789616604516e-07                -2.0451296969632804e-20                6.1901791687809366e-20                 3.604481089534624                          3.604481089534624                            3.604481089534624                1.9171896625889166e-18  6.029925372672535    0.60000000000000009  6.0000000000000009   0                    4.9187289394681308e-17    33                            3                           6                     0.0061213338835751623 -0.99914841598675141 -0.01178589949171847        6.9069281699993767e-14              2.2333267294805472e-12       
                       5.1085190393204389e-17                          175                                         2180.8593717996509                  -2.9212000561993189e-07                -8.1190455753644486e-20                7.7094021832300731e-20                 4.0056931311497026                         4.0056931311497026                           4.0056931311497026               1.9166195697609659e-18  6.029925372672535    0.60000000000000009  6.0000000000000009   0                    4.9091476801611123e-17    34                            4                           6                     0.0069224451296485412 -0.99893160376346779 -0.01326784954711715        2.7627712679997507e-13              2.5096038562805226e-12       
# Table End
