# ODT 1.0
# Table Start
# Title: mmArchive Data Table, Wed Jun 16 18:45:30 EDT 2010
# Columns: {Oxs_RungeKuttaEvolve:evolver:Total energy} {Oxs_RungeKuttaEvolve:evolver:Energy calc count} {Oxs_RungeKuttaEvolve:evolver:Max dm/dt} Oxs_RungeKuttaEvolve:evolver:dE/dt {Oxs_RungeKuttaEvolve:evolver:Delta E} Oxs_UniformExchange:NiFe:Energy {Oxs_UniformExchange:NiFe:Max Spin Ang} {Oxs_UniformExchange:NiFe:Stage Max Spin Ang} {Oxs_UniformExchange:NiFe:Run Max Spin Ang} Oxs_UZeeman::Energy  Oxs_UZeeman::B       Oxs_UZeeman::Bx      Oxs_UZeeman::By      Oxs_UZeeman::Bz      Oxs_Demag::Energy    Oxs_TimeDriver::Iteration {Oxs_TimeDriver::Stage iteration} Oxs_TimeDriver::Stage Oxs_TimeDriver::mx   Oxs_TimeDriver::my   Oxs_TimeDriver::mz   {Oxs_TimeDriver::Last time step} {Oxs_TimeDriver::Simulation time}
# Units:                        J                                             {}                                         deg/ns                                 J/s                                   J                                   J                                  deg                                        deg                                          deg                              J                 mT                   mT                   mT                   mT                     J                       {}                            {}                          {}                   {}                   {}                   {}                          s                                 s                
                       2.4351502549981073e-17                            1                                            2065.6695921510145                   -1.0556750229877716e-07                  0                                  0                                   0                                          0                                            0                                0                    0                    0                    0                    0                    2.4351502549981073e-17    0                             0                           0                     0                    1                    0                          0                                0                         
                       2.4351017314564139e-17                            7                                            2065.1621356330666                   -1.0545064113007122e-07                 -4.8523541693381015e-22                5.5654297303290949e-25                 0.0061549136940526267                        0.0061549136940526267                          0.0061549136940526267              0                    0                    0                    0                    0                    2.4351016758021165e-17    1                             1                           0                     2.0580746190863693e-07  0.99999999959164954  4.1141951967385771e-07        4.5989930026067235e-15              4.5989930026067235e-15       
                       2.4349081735555498e-17                            13                                           2063.1207478929196                   -1.0498490231631668e-07                 -1.9355790086422355e-21                1.3858076862683766e-23                 0.03071543839652759                        0.03071543839652759                          0.03071543839652759              0                    0                    0                    0                    0                    2.4349067877478635e-17    2                             2                           0                     1.030644648151677e-06  0.99999998981384297  2.056404288436694e-06        1.8395972010426894e-14              2.2994965013033614e-14       
                       2.4348982636418498e-17                            14                                           2867.657320217083                    -7.9029384835126933e-07                 -9.9099136998159232e-23                1.3858076862683766e-23                 0.03071543839652759                        0.03071543839652759                          0.03071543839652759             -9.9099136998158738e-23  100.00000000000001   100.00000000000001   0                    0                    2.4349067877478635e-17    3                             0                           1                     1.030644648151677e-06  0.99999998981384297  2.056404288436694e-06        0                                2.2994965013033614e-14       
                       2.4348883537281501e-17                            15                                           3764.1881134759865                   -2.8290140388664281e-06                 -9.9099136998157727e-23                1.3858076862683766e-23                 0.03071543839652759                        0.03071543839652759                          0.03071543839652759             -1.9819827399631748e-22  200.00000000000003   200.00000000000003   0                    0                    2.4349067877478635e-17    4                             0                           2                     1.030644648151677e-06  0.99999998981384297  2.056404288436694e-06        0                                2.2994965013033614e-14       
                       2.4341743821184776e-17                            21                                           3763.7302148123099                   -2.8289300972379942e-06                 -7.1397160967251683e-21                1.7057601437094421e-23                 0.034077633520520297                        0.034077633520520297                          0.034077633520520297             -7.0526810747438649e-21  200.00000000000003   200.00000000000003   0                    0                    2.4348779444658084e-17    5                             1                           2                     3.6674426362262046e-05  0.99999998410138335  7.3326470519400916e-05        2.5237846020472547e-15              2.5518749615080871e-14       
                       2.431318706662383e-17                            27                                           3761.8827468563245                   -2.828596623146646e-06                 -2.8556754560944936e-20                3.3150066467647074e-23                 0.047510252705470081                        0.047510252705470081                          0.047510252705470081             -3.4495616894646167e-20  200.00000000000003   200.00000000000003   0                    0                    2.4347649533452008e-17    6                             2                           2                     0.00017937957894536565  0.99999989531835587  0.00035833833102589272        1.0095138408189019e-14              3.5613888023269888e-14       
                       2.4295939258176509e-17                            28                                           4660.2909994647262                   -6.2206764776446384e-06                 -1.7247808447323083e-20                3.3150066467647074e-23                 0.047510252705470081                        0.047510252705470081                          0.047510252705470081             -5.1743425341969247e-20  300                  300                  0                    0                    2.4347649533452008e-17    7                             0                           3                     0.00017937957894536565  0.99999989531835587  0.00035833833102589272        0                                3.5613888023269888e-14       
                       2.4283258502494884e-17                            34                                           4659.8851395919482                   -6.2205891628348895e-06                 -1.268075568162553e-20                3.7037189835744199e-23                 0.050219568525890233                        0.050219568525890233                          0.050219568525890233             -6.4201986555646573e-20  300                  300                  0                    0                    2.4347423451860694e-17    8                             1                           3                     0.00022256982872115389  0.99999984915513718  0.00044456926769415934        2.0384993128307126e-15              3.7652387336100602e-14       
                       2.4232537251077752e-17                            40                                           4658.2512148876549                   -6.2202427166238835e-06                 -5.0721251417130164e-20                5.4718501939514782e-23                 0.061046809451037742                        0.061046809451037742                          0.061046809451037742             -1.1407287661823905e-19  300                  300                  0                    0                    2.4346555409194051e-17    9                             2                           3                     0.00039545786622420027  0.99999956991090977  0.00078942609884689657        8.1539972513228504e-15              4.5806384587423453e-14       
                       2.4194512958871674e-17                            41                                           5557.6565910788449                   -1.0965670508164469e-05                 -3.8024292206079684e-20                5.4718501939514782e-23                 0.061046809451037742                        0.061046809451037742                          0.061046809451037742             -1.5209716882431874e-19  400.00000000000006   400.00000000000006   0                    0                    2.4346555409194051e-17    10                            0                           4                     0.00039545786622420027  0.99999956991090977  0.00078942609884689657        0                                4.5806384587423453e-14       
                       2.417576883321478e-17                            47                                           5557.2912029027866                   -1.0965574491257211e-05                 -1.8744125656892075e-20                5.8856641560592085e-23                 0.063314547159404572                        0.063314547159404572                          0.063314547159404572             -1.7067406587596381e-19  400.00000000000006   400.00000000000006   0                    0                    2.4346384042449185e-17    11                            1                           4                     0.00044375843700994379  0.99999946589506672  0.00088576565984957445        1.7093535457461348e-15              4.7515738133169584e-14       
                       2.4100793963882568e-17                            53                                           5555.8221754222022                   -1.0965193533022462e-05                 -7.4974869332213337e-20                7.6899437682060087e-23                 0.07237882243034606                        0.07237882243034606                          0.07237882243034606             -2.4502741856763461e-19  400.00000000000006   400.00000000000006   0                    0                    2.434574448301252e-17    12                            2                           4                     0.00063707970938698885  0.99999893258424799  0.0012710611143941157        6.8374141829845393e-15              5.4353152316154124e-14       
                       2.4039537109240658e-17                            54                                           6455.8222141425313                   -1.7063960561132661e-05                 -6.1256854641908654e-20                7.6899437682060087e-23                 0.07237882243034606                        0.07237882243034606                          0.07237882243034606             -3.0628427320954324e-19  500.00000000000006   500.00000000000006   0                    0                    2.434574448301252e-17    13                            0                           5                     0.00063707970938698885  0.99999893258424799  0.0012710611143941157        0                                5.4353152316154124e-14       
                       2.4014426889861769e-17                            60                                           6455.4886876230012                   -1.7063852558767316e-05                 -2.5110219378890143e-20                8.1093697893990788e-23                 0.07432823886693371                        0.07432823886693371                          0.07432823886693371             -3.3127856053682656e-19  500.00000000000006   500.00000000000006   0                    0                    2.4345624356700701e-17    14                            1                           5                     0.00068906851423139123  0.99999875793287063  0.0013746830730918141        1.4715399038078681e-15              5.5824692219961996e-14       
                       2.3913987594638059e-17                            66                                           6454.1489288876373                   -1.7063423723253427e-05                 -1.0043929522370792e-19                9.8969253389755824e-23                 0.082121234316228198                        0.082121234316228198                          0.082121234316228198             -4.3130866732145344e-19  500.00000000000006   500.00000000000006   0                    0                    2.4345197292706123e-17    15                            2                           5                     0.00089713388661406281  0.99999792410950705  0.0017891126338007782        5.8861596152314725e-15              6.1710851835193471e-14       
                       2.3827725861173769e-17                            67                                           7354.532858667937                    -2.4515522704796992e-05                 -8.6261733464290695e-20                9.8969253389755824e-23                 0.082121234316228198                        0.082121234316228198                          0.082121234316228198             -5.1757040078574414e-19  600                  600                  0                    0                    2.4345197292706123e-17    16                            0                           6                     0.00089713388661406281  0.99999792410950705  0.0017891126338007782        0                                6.1710851835193471e-14       
                       2.3796058739847506e-17                            73                                           7354.2248611128762                   -2.4515400363099574e-05                 -3.1667121326263109e-20                1.0312677720856963e-22                 0.083830418814392571                        0.083830418814392571                          0.083830418814392571             -5.4917115704962359e-19  600                  600                  0                    0                    2.4345126770119922e-17    17                            1                           6                     0.00095190925484207281  0.99999766921844158  0.0018982282213424698        1.2917203828661188e-15              6.3002572218059583e-14       
                       2.3669391829003403e-17                            79                                           7352.9883865464753                   -2.4514914016452832e-05                 -1.266669108441032e-19                1.2059937292942196e-22                 0.090663771911217328                        0.090663771911217328                          0.090663771911217328             -6.7563290717425422e-19  600                  600                  0                    0                    2.4344904136804728e-17    18                            2                           6                     0.0011711125192194187  0.99999649996474183  0.0023346365418556668        5.1668815314644751e-15              6.8169453749524065e-14       
                       2.3556786344474361e-17                            80                                           8253.6348408380618                   -3.3320338239803847e-05                 -1.1260548452904238e-19                1.2059937292942196e-22                 0.090663771911217328                        0.090663771911217328                          0.090663771911217328             -7.8823839170329662e-19  700                  700                  0                    0                    2.4344904136804728e-17    19                            0                           7                     0.0011711125192194187  0.99999649996474183  0.0023346365418556668        0                                6.8169453749524065e-14       
                       2.3518434447306519e-17                            86                                           8253.347645711834                    -3.3320199631246707e-05                 -3.8351897167843043e-20                1.2467496017284883e-22                 0.092185282130099799                        0.092185282130099799                          0.092185282130099799             -8.2657269833974718e-19  700                  700                  0                    0                    2.4344882470686093e-17    20                            1                           7                     0.0012280670990649054  0.99999615743022996  0.0024480426673409456        1.1510080326058358e-15              6.9320461782129903e-14       
# Table End
