# ODT 1.0
# Table Start
# Title: mmArchive Data Table, Thu Jun 25 23:35:39 EDT 2020
# Columns: {Oxs_RungeKuttaEvolve:evolve:Total energy} {Oxs_RungeKuttaEvolve:evolve:Energy calc count} {Oxs_RungeKuttaEvolve:evolve:Max dm/dt} Oxs_RungeKuttaEvolve:evolve:dE/dt {Oxs_RungeKuttaEvolve:evolve:Delta E} Oxs_CubicAnisotropy::Energy Oxs_UniformExchange::Energy {Oxs_UniformExchange::Max Spin Ang} {Oxs_UniformExchange::Stage Max Spin Ang} {Oxs_UniformExchange::Run Max Spin Ang} Oxs_TransformZeeman::Energy Oxs_Demag::Energy    Oxs_TimeDriver::Iteration {Oxs_TimeDriver::Stage iteration} Oxs_TimeDriver::Stage Oxs_TimeDriver::mx   Oxs_TimeDriver::my   Oxs_TimeDriver::mz   {Oxs_TimeDriver::Last time step} {Oxs_TimeDriver::Simulation time}
# Units:                       J                                            {}                                        deg/ns                                 J/s                                  J                                J                           J                              deg                                    deg                                      deg                                J                      J                       {}                            {}                          {}                   {}                   {}                   {}                          s                                 s                
                       3.0838174328607178e-17                          1                                           19160.801051097707                  -5.6022922523203055e-06                 0                               -3.0880380723737159e-19         3.0725350698380748e-17             180                                    180                                      180                               0                        4.2162743746380655e-19    0                             0                           0                     2.8509874733126893e-17  3.7122232725425644e-20  0                          0                                0                         
                       3.0835397178852891e-17                          7                                           19158.280259633699                  -5.6003213472324902e-06                -2.7771497542917256e-21             -3.0880315640919043e-19         3.072261209391774e-17             179.99998722188613                     180                                      180                              -5.15914885791414e-25      4.2158875725922101e-19    1                             1                           0                    -4.2283306924664247e-10  2.632218791936701e-07  3.3964732490678884e-09        4.9580390583178419e-16              4.9580390583178419e-16       
                       3.082429834539902e-17                          13                                          19148.195943835799                  -5.5924461443785048e-06                -1.1098833453873306e-20             -3.0880057376291551e-19         3.0711667310591433e-17             179.99993620076813                     180                                      180                              -2.5798098919163911e-24      4.2143418838039197e-19    2                             2                           0                    -2.1144640251842079e-09  1.3162295039151754e-06  1.6984666674429056e-08        1.9832156233271367e-15              2.4790195291589211e-15       
                       3.0780058794054596e-17                          19                                          19107.840537513719                  -5.5610796383641844e-06                -4.4239551344419695e-20             -3.0879057179423494e-19         3.0668041826501801e-17             179.99973312505244                     180                                      180                              -1.0839159097692584e-23      4.2081837850613056e-19    3                             3                           0                    -8.8856603703176497e-09  5.530182643646557e-06  7.1373586207041118e-08        7.932862493308547e-15              1.0411882022467467e-14       
                       3.0605563501283796e-17                          25                                          18946.515811612051                  -5.4377386343295473e-06                -1.7449529277079451e-19             -3.08755689977802e-19         3.049596633939293e-17             179.99951945662988                     180                                      180                              -4.393697564802294e-23      4.1839678884431839e-19    4                             4                           0                    -3.6039082799106839e-08  2.2416815553163343e-05  2.8946492438069469e-07        3.1731449973234188e-14              4.2143331995701658e-14       
                       3.0605563501283796e-17                          26                                          18946.515811612051                  -5.4377386343295473e-06                 0                               -3.08755689977802e-19         3.049596633939293e-17             179.99951945662988                     179.99951945662988                       180                              -4.393697564802294e-23      4.1839678884431839e-19    5                             0                           1                    -3.6039082799106839e-08  2.2416815553163343e-05  2.8946492438069469e-07        0                                4.2143331995701658e-14       
                       2.9945157566262881e-17                          32                                          18309.406050381058                  -4.9768753464465319e-06                -6.6040593502091953e-19             -3.0868964392068466e-19         2.9844512674456351e-17             179.99624256749917                     179.99951945662988                       180                              -1.7730197419354814e-22      4.0951183770140849e-19    6                             1                           1                    -1.4544060836755197e-07  9.0460087455151273e-05  1.1675966034531519e-06        1.2692579989293675e-13              1.6906913188863842e-13       
                       2.7943181461601305e-17                          38                                          15950.726758229946                  -3.6532073212895821e-06                -2.0019761046615771e-18             -3.0905656539078423e-19         2.7860040927368724e-17             179.99248508455835                     179.99951945662988                       180                              -6.8367590609360553e-22      3.9288077552945544e-19    7                             2                           1                    -5.6014826250433622e-07  0.00034881479416696393  4.3439578306135296e-06        4.6877534408456718e-13              6.3784447597320565e-13       
                       2.620497877934707e-17                          44                                          13257.073692293992                  -2.6259340998631658e-06                -1.7382026822542339e-18             -3.0977121621202052e-19         2.6106304550176169e-17             179.98055084322374                     179.99951945662988                       180                              -1.3186114124693642e-21      4.0976405679538963e-19    8                             3                           1                    -1.1751670342756017e-06  0.00067277115022269178  7.5698876375099182e-06        5.6063899285082291e-13              1.1984834688240286e-12       
                       2.4840072368092904e-17                          50                                          10666.664435543695                  -1.9239127379380262e-06                -1.3649064112541661e-18             -3.1037062354340425e-19         2.4697040546220883e-17             179.96310793417402                     179.99951945662988                       180                              -2.0427091350612625e-21      4.5544515455048581e-19    9                             4                           1                    -2.2943251659637506e-06  0.0010422395799174785  1.0071890904331093e-05        6.0709730958376826e-13              1.8055807784077968e-12       
                       2.4840072368092904e-17                          51                                          10666.664435543695                  -1.9239127379380262e-06                 0                               -3.1037062354340425e-19         2.4697040546220883e-17             179.96310793417402                     179.96310793417402                       180                              -2.0427091350612625e-21      4.5544515455048581e-19    10                            0                           2                    -2.2943251659637506e-06  0.0010422395799174785  1.0071890904331093e-05        0                                1.8055807784077968e-12       
                       2.373390370910993e-17                          57                                          8939.6067097384621                  -1.4385648651412546e-06                -1.1061686589829725e-18             -3.1088678737314063e-19         2.3532739048549732e-17             179.92962451144493                     179.96310793417402                       180                              -2.8800480289217845e-21      5.1493149596226214e-19    11                            1                           2                    -4.4254715000659379e-06  0.001469520649332685  1.1811832357055228e-05        6.652984526724262e-13              2.470879231080223e-12       
                       2.2808389593308669e-17                          63                                          8956.7422998988368                  -1.1009143721204084e-06                -9.2551411580126347e-19             -3.114433933621744e-19         2.254268234371398e-17             179.87444181195366                     179.96310793417402                       180                              -3.8609299350576323e-21      5.8101157289192015e-19    12                            2                           2                    -8.0658715324742459e-06  0.0019700997021789464  1.2959687034664373e-05        7.3643428545188452e-13              3.2073135165321076e-12       
                       2.200928512310586e-17                          69                                          8781.044108573009                   -8.6357872896935668e-07                -7.9910447020280641e-19             -3.1211669110727309e-19         2.1673964909055619e-17             179.78737345305413                     179.96310793417402                       180                              -5.0229138530064469e-21      6.5245981901052189e-19    13                            3                           2                    -1.3628811545603511e-05  0.002563187218665075  1.3709715552692115e-05        8.2101463246912649e-13              4.0283281490012341e-12       
                       2.1297224542497196e-17                          75                                          8168.8562119199414                  -6.9291779974673064e-07                -7.1206058060866631e-19             -3.1286152494017239e-19         2.0886747695185123e-17             179.72218629873785                     179.96310793417402                       180                              -6.4170839769160256e-21      7.2975545622916137e-19    14                            4                           2                    -2.1540779886197072e-05  0.0032749367047610152  1.4153022155564106e-05        9.2224213780087537e-13              4.9505702868021097e-12       
                       2.1297224542497196e-17                          76                                          8168.8562119199414                  -6.9291779974673064e-07                 0                               -3.1286152494017239e-19         2.0886747695185123e-17             179.72218629873785                     179.72218629873785                       180                              -6.4170839769160256e-21      7.2975545622916137e-19    15                            0                           3                    -2.1540779886197072e-05  0.0032749367047610152  1.4153022155564106e-05        0                                4.9505702868021097e-12       
                       2.0641566421095527e-17                          82                                          7375.509276703041                   -5.6681828142699773e-07                -6.5565812140166956e-19             -3.1356789321957591e-19         2.0149380095689351e-17             179.80632195085292                     179.80632195085292                       180                              -8.1211185629560045e-21      8.1387533718870701e-19    16                            1                           3                    -3.2443110038307785e-05  0.0041451494830313847  1.4204760014338774e-05        1.0483876229623756e-12              5.9989579097644856e-12       
                       2.0029831156234306e-17                          88                                          8374.1448784288896                  -4.7474782761772916e-07                -6.117352648612184e-19             -3.1414253597191744e-19         1.9450139876531318e-17             179.64513944956042                     179.80632195085292                       180                              -1.0203444776596011e-20      9.0403726045150246e-19    17                            2                           3                    -4.6949794321520519e-05  0.0052090231426065005  1.3571362311847058e-05        1.1823028840421249e-12              7.1812607938066101e-12       
                       1.943401211718596e-17                          94                                          8521.7325509486145                  -4.0631124465641798e-07                -5.9581903904834759e-19             -3.1454510731295626e-19         1.8758929069769563e-17             179.06557497689784                     179.80632195085292                       180                              -1.2824015912484951e-20      1.0024521706418387e-18    18                            3                           3                    -6.6300758705635995e-05  0.0065487364474303335  1.1522131619102301e-05        1.3596848003867308e-12              8.5409455941933409e-12       
                       1.888149212974734e-17                          100                                         7366.8915045656731                  -3.5433848928436485e-07                -5.5251998743861999e-19             -3.1473900679004805e-19         1.8109034735423711e-17             179.70209045699511                     179.80632195085292                       180                              -1.5928782412235895e-20      1.103125183525913e-18    19                            4                           3                    -9.0278403877242649e-05  0.008137314216032681  6.6132398171376941e-06        1.4575078657284145e-12              9.9984534599217552e-12       
                       1.888149212974734e-17                          101                                         7366.8915045656731                  -3.5433848928436485e-07                 0                               -3.1473900679004805e-19         1.8109034735423711e-17             179.70209045699511                     179.70209045699511                       180                              -1.5928782412235895e-20      1.103125183525913e-18    20                            0                           4                    -9.0278403877242649e-05  0.008137314216032681  6.6132398171376941e-06        0                                9.9984534599217552e-12       
                       1.8396484735572498e-17                          113                                         7845.8798314845117                  -3.1716420173700211e-07                -4.8500739417484085e-19             -3.1483574376135769e-19         1.7532626543376107e-17             179.26772756593934                     179.70209045699511                       180                              -1.9367651929111341e-20      1.1980615878868626e-18    21                            1                           4                    -0.0001178734369199362  0.0098985817137199634 -3.0427640609958295e-06        1.4500318172724e-12              1.1448485277194155e-11       
                       1.7988334585025408e-17                          119                                         8272.0228233299695                  -2.9608971198199453e-07                -4.081501505470908e-19             -3.1499929048623074e-19         1.7045841233462632e-17             179.5116039926248                      179.70209045699511                       180                              -2.2893491056670722e-20      1.2803861331056765e-18    22                            2                           4                    -0.00014694351030561162  0.011706304000150299 -1.8256421746607997e-05        1.3350564150659332e-12              1.2783541692260088e-11       
                       1.7609936967527412e-17                          125                                         7755.8852076943813                  -2.8259452198662708e-07                -3.7839761749799625e-19             -3.1528249107653144e-19         1.6594274230873759e-17             175.94354888067554                     179.70209045699511                       180                              -2.672749702485301e-20      1.3576727247550379e-18    23                            3                           4                    -0.000179253710015924  0.013674198328687834 -4.110131452855332e-05        1.3091747380063988e-12              1.4092716430266488e-11       
                       1.7232553346228384e-17                          131                                         7086.0355830266144                  -2.7095962256787719e-07                -3.773836212990273e-19             -3.1565968325223913e-19         1.6142994418874304e-17             178.58054724834952                     179.70209045699511                       180                              -3.1164735594335309e-20      1.4363833462006535e-18    24                            4                           4                    -0.0002175688778783803  0.015954461998118952 -7.5377061023167808e-05        1.3643297699884313e-12              1.5457046200254919e-11       
                       1.7232553346228384e-17                          132                                         7086.0355830266144                  -2.7095962256787719e-07                 0                               -3.1565968325223913e-19         1.6142994418874304e-17             178.58054724834952                     178.58054724834952                       180                              -3.1164735594335309e-20      1.4363833462006535e-18    25                            0                           5                    -0.0002175688778783803  0.015954461998118952 -7.5377061023167808e-05        0                                1.5457046200254919e-11       
                       1.6869203146356014e-17                          138                                         7000.1786230784883                  -2.6317169141882384e-07                -3.6335019987237049e-19             -3.160620888914186e-19         1.5707262411775692e-17             179.21174053148798                     179.21174053148798                       180                              -3.6114791037960514e-20      1.5141176145097007e-18    26                            1                           5                    -0.00026131821468904884  0.018501573772085944 -0.00012236366497703999        1.3629763244713011e-12              1.6820022524726218e-11       
                       1.6521038411500922e-17                          144                                         7405.8977363190088                  -2.6214935828980147e-07                -3.481647348550912e-19             -3.1645613878190047e-19         1.5288882295782298e-17             178.34797632155716                     179.21174053148798                       180                              -4.1511863494057607e-20      1.5901241179945817e-18    27                            2                           5                    -0.00030978994789096167  0.021282489933750079 -0.00018248678332299283        1.3284182634100563e-12              1.8148440788136277e-11       
                       1.6162605705222667e-17                          150                                         7882.5436742959209                  -2.6706657690469555e-07                -3.5843270627825601e-19             -3.1683736682974505e-19         1.4857040935755137e-17             179.46799812696062                     179.46799812696062                       180                              -4.7655419630288169e-20      1.6700575559275639e-18    28                            3                           5                    -0.00036568325644220244  0.024452687158784615 -0.00026101422795610132        1.3564985107007613e-12              1.9504939298837038e-11       
                       1.5748399468901637e-17                          156                                         8028.7083519311391                  -2.7550303009089916e-07                -4.1420623632102875e-19             -3.1720999093733073e-19         1.4355671414889959e-17             176.8764020847735                      179.46799812696062                       180                              -5.5328388818977672e-20      1.7652664337679852e-18    29                            4                           5                    -0.00043703818761028007  0.028418965720360116 -0.00037439363798333976        1.5271189251117413e-12              2.1032058223948778e-11       
                       1.5748399468901637e-17                          157                                         8028.7083519311391                  -2.7550303009089916e-07                 0                               -3.1720999093733073e-19         1.4355671414889959e-17             176.8764020847735                      176.8764020847735                        180                              -5.5328388818977672e-20      1.7652664337679852e-18    30                            0                           6                    -0.00043703818761028007  0.028418965720360116 -0.00037439363798333976        0                                2.1032058223948778e-11       
                       1.5301152038760365e-17                          163                                         8565.3002233377065                  -2.8302385495750336e-07                -4.4724743014127318e-19             -3.1758771244690182e-19         1.3811671433416648e-17             177.24154079242439                     177.24154079242439                       180                              -6.4136080116016693e-20      1.8712043979066353e-18    31                            1                           6                    -0.00052213897365289833  0.032981392730507687 -0.00052890826237052399        1.600036868254252e-12              2.2632095092203029e-11       
                       1.4851123300882269e-17                          169                                         8929.3883725903725                  -2.8609256798430277e-07                -4.500287378780973e-19             -3.1806497671025035e-19         1.3263547245452125e-17             172.71307550330553                     177.24154079242439                       180                              -7.3455607922503889e-20      1.9790966400628969e-18    32                            2                           6                    -0.00061692476629152213  0.03782062782363986 -0.00072920392595834504        1.5788996579623974e-12              2.4210994750165427e-11       
                       1.4400851483307167e-17                          175                                         10354.123400059701                  -2.8309996667234285e-07                -4.5027181757510314e-19             -3.1856181013125094e-19         1.2716197664950132e-17             175.67059080149915                     177.24154079242439                       180                              -8.3252415675669799e-20      2.0864680441639535e-18    33                            3                           6                    -0.00072333072862792189  0.042921316638305833 -0.00099587624846676119        1.579262022663153e-12              2.5790256772828579e-11       
                       1.3975652973321259e-17                          181                                         12105.916698479545                  -2.739690898605763e-07                -4.2519850998590422e-19             -3.1875668862344612e-19         1.220146747567384e-17             176.11482238786624                     177.24154079242439                       180                              -9.3023121649653359e-20      2.1859653079205202e-18    34                            4                           6                    -0.00083889602364827789  0.048022965569017077 -0.0013407743537749831        1.5232367663876187e-12              2.7313493539216198e-11       
# Table End
