# ODT 1.0
# Table Start
# Title: mmArchive Data Table, Wed Jun 11 15:41:17 EDT 2014
# Columns: {Oxs_RungeKuttaEvolve:evolve:Total energy} {Oxs_RungeKuttaEvolve:evolve:Energy calc count} {Oxs_RungeKuttaEvolve:evolve:Max dm/dt} Oxs_RungeKuttaEvolve:evolve:dE/dt {Oxs_RungeKuttaEvolve:evolve:Delta E} Oxs_UniformExchange:NiFe:Energy {Oxs_UniformExchange:NiFe:Max Spin Ang} {Oxs_UniformExchange:NiFe:Stage Max Spin Ang} {Oxs_UniformExchange:NiFe:Run Max Spin Ang} Oxs_UZeeman::Energy  Oxs_UZeeman::B       Oxs_UZeeman::Bx      Oxs_UZeeman::By      Oxs_UZeeman::Bz      Oxs_Demag::Energy    Oxs_TimeDriver::Iteration {Oxs_TimeDriver::Stage iteration} Oxs_TimeDriver::Stage Oxs_TimeDriver::mx   Oxs_TimeDriver::my   Oxs_TimeDriver::mz   {Oxs_TimeDriver::Last time step} {Oxs_TimeDriver::Simulation time}
# Units:                       J                                            {}                                        deg/ns                                 J/s                                  J                                  J                                  deg                                        deg                                          deg                              J                 mT                   mT                   mT                   mT                     J                       {}                            {}                          {}                   {}                   {}                   {}                          s                                 s                
                       5.8671498860221225e-17                          1                                           0.00055879833968636725                 -1.0829503262271046e-20                 0                                  4.1266253532223779e-17                 131.66949091318824                         131.66949091318824                           131.66949091318824               0                    0                    0                    0                    0                    1.7405245327997448e-17    0                             0                           0                     1.0092936604968241e-23  9.6892191407695116e-22 -2.7452787565513613e-21        0                                0                         
                       5.8671498860221225e-17                          2                                           9.0151063734461605                  -1.2782769503023571e-11                 0                                  4.1266253532223779e-17                 131.66949091318824                         131.66949091318824                           131.66949091318824              -4.5917748078995606e-41  1.0049875621120892   0.10000000000000001  1                    0                    1.7405245327997448e-17    1                             0                           1                     1.0092936604968241e-23  9.6892191407695116e-22 -2.7452787565513613e-21        0                                0                         
                       5.8671485745405471e-17                          8                                           9.0351356280679234                  -1.2127089239430392e-11                -1.3114815747434787e-23                4.1266253539199861e-17                 131.66949070529887                         131.66949091318824                           131.66949091318824              -1.2961918366328402e-23  1.0049875621120892   0.10000000000000001  1                    0                    1.7405245168123982e-17    2                             1                           1                     8.317595182093445e-06  3.5991872268041374e-05 -6.4981099879992136e-10        1.0537867892476661e-12              1.0537867892476661e-12       
                       5.867143853911814e-17                          14                                          9.32587078996972                    -1.0524573302843727e-11                -4.7206287337723343e-23                4.1266253474369522e-17                 131.66948792904992                         131.66949091318824                           131.66949091318824              -5.521125743549958e-23  1.0049875621120892   0.10000000000000001  1                    0                    1.7405240276006055e-17    3                             2                           1                     5.9302795839247261e-05  0.00015091988385655279 -2.649405199155072e-08        4.2151471569906643e-12              5.26893394623833e-12       
                       5.8671280748615925e-17                          20                                          13.400247820113876                  -1.5089075887923253e-11                -1.5779050220818176e-22                4.1266232007876566e-17                 131.66943747266345                         131.66949091318824                           131.66949091318824              -1.0377991649385343e-22  1.0049875621120892   0.10000000000000001  1                    0                    1.740515252065586e-17    4                             3                           1                     0.00045168571477406503  0.00024966073725399919 -8.1832413439753485e-07        1.3744799935463717e-11              1.9013733881702049e-11       
                       5.8671083002945902e-17                          32                                          22.643002167814409                  -3.213558730680497e-11                -1.9774567003356054e-22                4.1266131371289876e-17                 131.66928339700584                         131.66949091318824                           131.66949091318824              -7.5776086327921746e-23  1.0049875621120892   0.10000000000000001  1                    0                    1.7405027407742348e-17    5                             4                           1                     0.0010205085014424193  0.00011322212275081398 -2.7743794460368585e-06        8.9934749859218938e-12              2.8007208867623941e-11       
                       5.8671007226859565e-17                          33                                          27.131760521725468                  -7.0175837209343068e-11                -7.5776086327921605e-23                4.1266131371289876e-17                 131.66928339700584                         131.66928339700584                           131.66949091318824              -1.5155217265584349e-22  2.0099751242241783   0.20000000000000001  2                    0                    1.7405027407742348e-17    6                             0                           2                     0.0010205085014424193  0.00011322212275081398 -2.7743794460368585e-06        0                                2.8007208867623941e-11       
                       5.8670984317255167e-17                          39                                          27.729772050826401                  -7.1305240819130157e-11                -2.2909604400865695e-23                4.1266123972900203e-17                 131.66927020847473                         131.66928339700584                           131.66949091318824              -1.5621088195066284e-22  2.0099751242241783   0.20000000000000001  2                    0                    1.7405016555236914e-17    7                             1                           2                     0.0010509374877414924  0.00011679670892613628 -2.9362280223316932e-06        3.2388241054108905e-13              2.833109127816503e-11       
                       5.8670888646780706e-17                          45                                          30.346568264291946                  -7.6602063353812465e-11                -9.5670474464625852e-23                4.1266089818442459e-17                 131.66920782599885                         131.66928339700584                           131.66949091318824              -1.7196457154719582e-22  2.0099751242241783   0.20000000000000001  2                    0                    1.7404970792909788e-17    8                             2                           2                     0.0011811223027405251  0.00012615562746003472 -3.6503551181162043e-06        1.2955296421643562e-12              2.9626620920329388e-11       
                       5.8670408068464854e-17                          51                                          46.46940152586145                   -1.1380909810679562e-10                -4.8057831584631354e-22                4.1265843007821516e-17                 131.6687692048979                          131.66928339700584                           131.66949091318824              -1.9177755880906444e-22  2.0099751242241783   0.20000000000000001  2                    0                    1.740475683820215e-17    9                             3                           2                     0.0018576449937939467  8.6646806218551822e-05 -7.8502704203581771e-06        5.1821185686574248e-12              3.4808739488986814e-11       
                       5.8668674977838633e-17                          57                                          103.041716788125                    -3.085885471853982e-10                -1.7330906262243481e-21                4.1264316624410257e-17                 131.66617430298353                         131.66928339700584                           131.66949091318824              -8.3057159385077025e-23  2.0099751242241783   0.20000000000000001  2                    0                    1.740444141058776e-17    10                            4                           2                     0.0039147820209576821 -0.00027349928231051895 -2.3981188049458475e-05        9.0974888739648852e-12              4.3906228362951699e-11       
                       5.8668633449258945e-17                          58                                          107.06936899509303                  -3.8482145949271299e-10                -4.1528579692536162e-23                4.1264316624410257e-17                 131.66617430298353                         131.66617430298353                           131.66949091318824              -1.2458573907761554e-22  3.0149626863362675   0.30000000000000004  3.0000000000000004   0                    1.740444141058776e-17    11                            0                           3                     0.0039147820209576821 -0.00027349928231051895 -2.3981188049458475e-05        0                                4.3906228362951699e-11       
                       5.866860172868524e-17                          64                                          107.82005538540551                  -3.881703673078371e-10                -3.1720573705297458e-23                4.1264289582837598e-17                 131.66612576296936                         131.66617430298353                           131.66949091318824              -1.2519502155612923e-22  3.0149626863362675   0.30000000000000004  3.0000000000000004   0                    1.7404437340869196e-17    12                            1                           3                     0.0039409603638690706 -0.00027554014455661208 -2.4253520966139294e-05        8.2072959637996282e-14              4.3988301322589695e-11       
                       5.866847204499344e-17                          70                                          110.88022183371199                  -4.0199725806044825e-10                -1.2968369179683483e-22                4.1264177641145333e-17                 131.66592538286065                         131.66617430298353                           131.66949091318824              -1.2728147864731212e-22  3.0149626863362675   0.30000000000000004  3.0000000000000004   0                    1.7404421685326751e-17    13                            2                           3                     0.0040473565671262923 -0.0002842039532395374 -2.5367180108643355e-05        3.2829183855198513e-13              4.4316593161141678e-11       
                       5.8667904291331472e-17                          76                                          124.08554187721236                  -4.6480915301264769e-10                -5.6775366197132448e-22                4.1263663350215682e-17                 131.66501418771108                         131.66617430298353                           131.66949091318824              -1.301547133069689e-22  3.0149626863362675   0.30000000000000004  3.0000000000000004   0                    1.7404371095829091e-17    14                            3                           3                     0.0045009665200356572 -0.00032684408237078675 -3.0233441304057848e-05        1.3131673542079405e-12              4.5629760515349618e-11       
                       5.8664496155907905e-17                          82                                          195.76882766377693                  -8.8840645677469891e-10                -3.4081354235618965e-21                4.1260012675410194e-17                 131.65867311951283                         131.66617430298353                           131.66949091318824              -6.3170339111755573e-23  3.0149626863362675   0.30000000000000004  3.0000000000000004   0                    1.7404546650836821e-17    15                            4                           3                     0.0068458451115550809 -0.0006247641141658508 -5.7982643856349558e-05        5.252669416831762e-12              5.0882429932181378e-11       
                       5.8664475099128196e-17                          83                                          199.74818072547606                  -1.0023716381510087e-09                -2.1056779703915429e-23                4.1260012675410194e-17                 131.65867311951283                         131.65867311951283                           131.66949091318824              -8.4227118815674094e-23  4.0199502484483567   0.40000000000000002  4                    0                    1.7404546650836821e-17    16                            0                           4                     0.0068458451115550809 -0.0006247641141658508 -5.7982643856349558e-05        0                                5.0882429932181378e-11       
                       5.8664430885236404e-17                          89                                          200.50121271070844                  -1.007681523000195e-09                -4.4213891795849699e-23                4.1259966471210826e-17                 131.65859178052725                         131.65867311951283                           131.66949091318824              -8.5100206777969465e-23  4.0199502484483567   0.40000000000000002  4                    0                    1.740454951423236e-17    17                            1                           4                     0.0068699934177497996 -0.00062655885390193748 -5.832922864016409e-05        4.3992891289844095e-14              5.0926422823471226e-11       
                       5.8664251669525794e-17                          95                                          203.5433622242204                   -1.0292882981937473e-09                -1.7921571060701295e-22                4.1259778232541285e-17                 131.6582604613539                          131.65867311951283                           131.66949091318824              -8.8429231542832694e-23  4.0199502484483567   0.40000000000000002  4                    0                    1.7404561866216057e-17    18                            2                           4                     0.0069674126180691515 -0.00063393640975019057 -5.973193785794136e-05        1.7597156515937638e-13              5.1102394388630599e-11       
                       5.8663495176877381e-17                          101                                         216.20484401824302                  -1.121871048416574e-09                -7.5649264842081101e-22                4.1258967655395687e-17                 131.65683494737536                         131.65867311951283                           131.66949091318824              -9.9178671128177236e-23  4.0199502484483567   0.40000000000000002  4                    0                    1.7404626700152816e-17    19                            3                           4                     0.0073705970307070797 -0.00066662030584072529 -6.5612660526619682e-05        7.0388626063750552e-13              5.1806280649268104e-11       
                       5.8659696824797847e-17                          107                                         275.60453142227311                  -1.6116265823632432e-09                -3.7983520795344828e-21                4.125458833612503e-17                 131.64916995762002                         131.65867311951283                           131.66949091318824              -1.0415953848532876e-22  4.0199502484483567   0.40000000000000002  4                    0                    1.7405212648211296e-17    20                            4                           4                     0.009219696103257246 -0.00084799266525073373 -9.4011569338670249e-05        2.8155450425500221e-12              5.4621825691818129e-11       
                       5.8659670784913222e-17                          108                                         279.54882438606228                  -1.7599120752188331e-09                -2.6039884621329301e-23                4.125458833612503e-17                 131.64916995762002                         131.64916995762002                           131.66949091318824              -1.3019942310666096e-22  5.0249378105604459   0.5                  5                    0                    1.7405212648211296e-17    21                            0                           5                     0.009219696103257246 -0.00084799266525073373 -9.4011569338670249e-05        0                                5.4621825691818129e-11       
                       5.8659611188647979e-17                          114                                         280.35507215640229                  -1.7673174059445753e-09                -5.9596265245577948e-23                4.125452206165091e-17                 131.64905308221861                         131.64916995762002                           131.66949091318824              -1.3200665766829763e-22  5.0249378105604459   0.5                  5                    0                    1.7405221133654735e-17    22                            1                           5                     0.0092446282071769435 -0.00084945903782181491 -9.4452075466749382e-05        3.3792173945808178e-14              5.4655617865763934e-11       
                       5.8659370281099974e-17                          120                                         283.6044909142849                   -1.7973353615294269e-09                -2.4090754800241359e-22                4.1254253199543994e-17                 131.6485791056046                          131.64916995762002                           131.66949091318824              -1.3908958805735366e-22  5.0249378105604459   0.5                  5                    0                    1.7405256171144034e-17    23                            2                           5                     0.0093450124076775182 -0.0008554730655983985 -9.6230141951330104e-05        1.3516869578323271e-13              5.4790786561547166e-11       
                       5.8658364752933867e-17                          126                                         297.00070065685583                  -1.9239853162637823e-09                -1.0055281661129511e-21                4.1253115118315052e-17                 131.6465756229837                          131.64916995762002                           131.66949091318824              -1.6512171915957519e-22  5.0249378105604459   0.5                  5                    0                    1.740541475633797e-17    24                            3                           5                     0.009757219328458102 -0.00088190277407005203 -0.00010360505990884791        5.4067478313293085e-13              5.5331461344680101e-11       
                       5.8653562195328139e-17                          132                                         357.48333219738828                  -2.5525484326145695e-09                -4.8025576057250632e-21                4.1247387236143167e-17                 131.63655397059182                         131.64916995762002                           131.66949091318824              -2.3483805152498416e-22  5.0249378105604459   0.5                  5                    0                    1.7406409797236494e-17    25                            4                           5                     0.011588844981804182 -0.0010254537868557621 -0.00013771711058612878        2.1626991325317234e-12              5.7494160477211821e-11       
                       5.8653515227717825e-17                          133                                         361.38678172048014                  -2.7343175235380697e-09                -4.6967610304992393e-23                4.1247387236143167e-17                 131.63655397059182                         131.63655397059182                           131.66949091318824              -2.8180566182998102e-22  6.029925372672535    0.60000000000000009  6.0000000000000009   0                    1.7406409797236494e-17    26                            0                           6                     0.011588844981804182 -0.0010254537868557621 -0.00013771711058612878        0                                5.7494160477211821e-11       
                       5.8653443228879704e-17                          139                                         362.19464131564621                  -2.7434632113570688e-09                -7.1998838125883422e-23                4.1247303878544228e-17                 131.6364074692525                          131.63655397059182                           131.66949091318824              -2.8445874494509678e-22  6.029925372672535    0.60000000000000009  6.0000000000000009   0                    1.7406423809080424e-17    27                            1                           6                     0.011613213787621604 -0.0010266344727785522 -0.00013822670275057182        2.6287624452595259e-14              5.7520448101664419e-11       
                       5.8653152814288151e-17                          145                                         365.44493228215043                  -2.7804283548180152e-09                -2.9041459155261099e-22                4.1246966772234414e-17                 131.63581519813434                         131.63655397059182                           131.66949091318824              -2.9494755451562698e-22  6.029925372672535    0.60000000000000009  6.0000000000000009   0                    1.7406480989608251e-17    28                            2                           6                     0.011711187483882647 -0.0010314655499857729 -0.00014027954036931141        1.0515049781038103e-13              5.7625598599474796e-11       
                       5.8651951300695106e-17                          151                                         378.75225859866163                  -2.9345805809580428e-09                -1.2015135930439184e-21                4.124555771966488e-17                 131.63334288871266                         131.63655397059182                           131.66949091318824              -3.349528725380458e-22  6.029925372672535    0.60000000000000009  6.0000000000000009   0                    1.7406728533902768e-17    29                            3                           6                     0.012111162519682885 -0.0010525211415905826 -0.00014872657667464362        4.2060199124152414e-13              5.8046200590716326e-11       
                       5.864642750158607e-17                          157                                         437.18181112060199                  -3.6640067590321686e-09                -5.5237991090348984e-21                4.1238824314977862e-17                 131.62159379815554                         131.63655397059182                           131.66949091318824              -4.6549250636709707e-22  6.029925372672535    0.60000000000000009  6.0000000000000009   0                    1.7408068679114578e-17    30                            4                           6                     0.013847367363100391 -0.0011643330870805518 -0.0001865679237699887        1.6824079649660966e-12              5.9728608555682417e-11       
                       5.864634991950168e-17                          158                                         441.04477066634405                  -3.8783475593197885e-09                -7.7582084394519986e-23                4.1238824314977862e-17                 131.62159379815554                         131.62159379815554                           131.66949091318824              -5.430745907616132e-22  7.0349129347846233   0.70000000000000007  7.0000000000000009   0                    1.7408068679114578e-17    31                            0                           7                     0.013847367363100391 -0.0011643330870805518 -0.0001865679237699887        0                                5.9728608555682417e-11       
                       5.8646266264998275e-17                          164                                         441.849549830287                    -3.889107254635231e-09                -8.3654503408615133e-23                4.1238725021922938e-17                 131.62141995606231                         131.62159379815554                           131.66949091318824              -5.4661485461307238e-22  7.0349129347846233   0.70000000000000007  7.0000000000000009   0                    1.7408087857929943e-17    32                            1                           7                     0.013871234518167375 -0.0011652830071905026 -0.00018714177649799648        2.1539763379683895e-14              5.9750148319062105e-11       
                       5.8645929317454379e-17                          170                                         445.08391505039202                  -3.9325153506557728e-09                -3.3694754389673225e-22                4.1238324268062859e-17                 131.62071852539097                         131.62159379815554                           131.66949091318824              -5.6066531416835174e-22  7.0349129347846233   0.70000000000000007  7.0000000000000009   0                    1.7408165714705681e-17    33                            2                           7                     0.013967103074689839 -0.0011691675659354457 -0.00018945056982321931        8.6159053518735578e-14              5.9836307372580841e-11       
                       5.8644543349923421e-17                          176                                         458.26827801021034                  -4.1121932553676762e-09                -1.3859675309508151e-21                4.1236662508477163e-17                 131.6178134688968                          131.62159379815554                           131.66949091318824              -6.1511829864038271e-22  7.0349129347846233   0.70000000000000007  7.0000000000000009   0                    1.7408495959744899e-17    34                            3                           7                     0.014357044812441334 -0.0011860623141561036 -0.0001989030226022176        3.4463621407494231e-13              6.0180943586655788e-11       
# Table End
