# ODT 1.0
# Table Start
# Title: mmArchive Data Table, Thu May 14 02:19:12 EDT 2015
# Columns: {Oxs_RungeKuttaEvolve:evolve:Total energy} {Oxs_RungeKuttaEvolve:evolve:Energy calc count} {Oxs_RungeKuttaEvolve:evolve:Max dm/dt} Oxs_RungeKuttaEvolve:evolve:dE/dt {Oxs_RungeKuttaEvolve:evolve:Delta E} Oxs_CubicAnisotropy::Energy Oxs_UniformExchange::Energy {Oxs_UniformExchange::Max Spin Ang} {Oxs_UniformExchange::Stage Max Spin Ang} {Oxs_UniformExchange::Run Max Spin Ang} Oxs_TransformZeeman::Energy Oxs_Demag::Energy    Oxs_TimeDriver::Iteration {Oxs_TimeDriver::Stage iteration} Oxs_TimeDriver::Stage Oxs_TimeDriver::mx   Oxs_TimeDriver::my   Oxs_TimeDriver::mz   {Oxs_TimeDriver::Last time step} {Oxs_TimeDriver::Simulation time}
# Units:                       J                                            {}                                        deg/ns                                 J/s                                  J                                J                           J                              deg                                    deg                                      deg                                J                      J                       {}                            {}                          {}                   {}                   {}                   {}                          s                                 s                
                       3.0837278229348847e-17                          1                                           19159.947848405358                  -5.6052906691556036e-06                 0                               -3.0969990649571652e-19         3.0725350698380748e-17             180                                    180                                      180                              -9.1835496157991212e-41      4.2162743746381368e-19    0                             0                           0                     1.5044654864308244e-21 -5.4378270593885218e-23  0                          0                                0                         
                       3.0834499469571564e-17                          7                                           19156.504161656489                  -5.6033184009461282e-06                -2.7787597772824066e-21             -3.097003859150752e-19         3.0722611623123376e-17             179.99998785638991                     180                                      180                              -5.1753608996484963e-25      4.2158874989935127e-19    1                             1                           0                    -3.5231081944181111e-11  2.6404902538379126e-07  2.6948588114548831e-11        4.9582598424403661e-16              4.9582598424403661e-16       
                       3.0823394203217205e-17                          13                                          19142.72789883905                   -5.5954377484307865e-06                -1.1105266354356857e-20             -3.0970232412503838e-19         3.0711664963500916e-17             179.99993932195252                     180                                      180                              -2.5879260164978407e-24      4.2143415176734212e-19    2                             2                           0                    -1.7732738393151845e-10  1.3203704139785221e-06  1.4475036887541731e-10        1.9833039369761464e-15              2.4791299212201834e-15       
                       3.0779129035155512e-17                          19                                          19090.165931387                     -5.5640494895284832e-06                -4.426516806169619e-20             -3.0971040271559192e-19         3.0668032083418812e-17             179.99974580984608                     180                                      180                              -1.0873417658714677e-23      4.2081822786994964e-19    3                             3                           0                    -7.645816086743377e-10  5.5476620326241563e-06  7.7622993659024949e-10        7.9332157479045858e-15              1.0412345669124769e-14       
                       3.0604533101862313e-17                          25                                          18931.676388410342                  -5.4406222404028254e-06                -1.7459593329319623e-19             -3.0974775184893051e-19         3.0495928701696243e-17             179.99898102291013                     180                                      180                              -4.4078475146200814e-23      4.1839623049014499e-19    4                             4                           0                    -3.4230037791903703e-09  2.2489017813793471e-05  5.8757213858980649e-09        3.1732862991618343e-14              4.2145208660743117e-14       
                       3.0604533101862313e-17                          26                                          18931.676388410342                  -5.4406222404028254e-06                 0                               -3.0974775184893051e-19         3.0495928701696243e-17             179.99898102291013                     179.99898102291013                       180                              -4.4078475146200814e-23      4.1839623049014499e-19    5                             0                           1                    -3.4230037791903703e-09  2.2489017813793471e-05  5.8757213858980649e-09        0                                4.2145208660743117e-14       
                       2.9943752989061531e-17                          32                                          18294.274208290986                  -4.9794281659371595e-06                -6.607801128007849e-19             -3.0996648361224542e-19         2.9844386933746454e-17             179.99602508755271                     179.99898102291013                       180                              -1.7791873655463599e-22      4.0951045766387256e-19    6                             1                           1                    -1.9485034750190936e-08  9.0774896112109669e-05  6.7891985427193426e-08        1.2693145196647337e-13              1.6907666062721648e-13       
                       2.7939704655309497e-17                          38                                          15937.14503088614                   -3.6541410695966886e-06                -2.0040483337520294e-18             -3.1123339963176905e-19         2.7858737310633327e-17             179.98452169307086                     179.99898102291013                       180                              -6.8707233594090833e-22      3.9288781664388111e-19    7                             2                           1                    -1.7855763624753819e-07  0.00035054921215318697  8.7489319836418656e-07        4.6907811623885069e-13              6.3815477686606715e-13       
                       2.620047108530493e-17                          44                                          13250.759336486672                  -2.6261171938519378e-06                -1.7392335700045681e-18             -3.1261074174498603e-19         2.6104571286185689e-17             179.96192852745259                     179.99898102291013                       180                              -1.3265119110166998e-21      4.0983705277524491e-19    8                             3                           1                    -6.4525261967511931e-07  0.00067680613702189628  2.9384628147682905e-06        5.6087981233352801e-13              1.1990345891995953e-12       
                       2.483542693461523e-17                          50                                          10651.461986837163                  -1.9239598302254885e-06                -1.365044150689699e-18             -3.1359196711931433e-19         2.4695490435509939e-17             179.93545499835872                     179.99898102291013                       180                              -2.0563164762119132e-21      4.5558478270081976e-19    9                             4                           1                    -1.5124189767612867e-06  0.001049191456714672  6.2728608259948717e-06        6.0712907208952375e-13              1.806163661289119e-12       
                       2.483542693461523e-17                          51                                          10651.461986837163                  -1.9239598302254885e-06                 0                               -3.1359196711931433e-19         2.4695490435509939e-17             179.93545499835872                     179.93545499835872                       180                              -2.0563164762119132e-21      4.5558478270081976e-19    10                            0                           2                    -1.5124189767612867e-06  0.001049191456714672  6.2728608259948717e-06        0                                1.806163661289119e-12       
                       2.3729640655964629e-17                          57                                          8966.8532592033007                  -1.438667804299899e-06                -1.1057862786506023e-18             -3.1437564353165027e-19         2.3531821132216259e-17             179.9910827194519                      179.9910827194519                        180                              -2.900532052073398e-21      5.1509569933209231e-19    11                            1                           2                    -2.8207863579250999e-06  0.0014799978960712337  1.0937438388038817e-05        6.6503281394549605e-13              2.471196475234615e-12       
                       2.2804983236678522e-17                          63                                          8991.6356955193678                  -1.1011434139342231e-06                -9.2465741928610521e-19             -3.1513165978858607e-19         2.2542879390546465e-17             179.85442718537101                     179.9910827194519                        180                              -3.8892729713707872e-21      5.8112477889201591e-19    12                            2                           2                    -4.6458414910597221e-06  0.0019846321971279577  1.7046941047053595e-05        7.3564454312861245e-13              3.2068410183632273e-12       
                       2.2006979050932061e-17                          69                                          8815.8780722561278                  -8.6393263436389267e-07                -7.9800418574646369e-19             -3.1589022550540458e-19         2.1675493320127894e-17             179.65977419442368                     179.9910827194519                        180                              -5.0596703988107799e-21      6.5243562670838155e-19    13                            3                           2                    -7.1791998551462816e-06  0.0025821091667879823  2.4809263070804242e-05        8.1962829658204936e-13              4.0264693149452767e-12       
                       2.1295920232517643e-17                          75                                          8192.7713311298521                  -6.9335774001221106e-07                -7.1105881841441626e-19             -3.166041701371017e-19         2.0889445905710067e-17             179.67645412121621                     179.9910827194519                        180                              -6.4623893826560228e-21      7.2954088632733273e-19    14                            4                           2                    -1.079167999526839e-05  0.0032983952601937584  3.4680849366084125e-05        9.204658162437912e-13              4.9469351311890683e-12       
                       2.1295920232517643e-17                          76                                          8192.7713311298521                  -6.9335774001221106e-07                 0                               -3.166041701371017e-19         2.0889445905710067e-17             179.67645412121621                     179.67645412121621                       180                              -6.4623893826560228e-21      7.2954088632733273e-19    15                            0                           3                    -1.079167999526839e-05  0.0032983952601937584  3.4680849366084125e-05        0                                4.9469351311890683e-12       
                       2.0640768402261696e-17                          82                                          7392.3607572113069                  -5.6727070482277475e-07                -6.5515183025594946e-19             -3.1728184527530916e-19         2.015273024800957e-17             179.9754639259138                      179.9754639259138                        180                              -8.17555592239397e-21      8.1349555544982808e-19    16                            1                           3                    -1.6188863241025453e-05  0.0041735517407932472  4.7661817088204385e-05        1.046833859082442e-12              5.9937689902715099e-12       
                       2.0029891359332732e-17                          88                                          8409.1323665293075                  -4.753033988498863e-07                -6.1087704292896086e-19             -3.1803244417472643e-19         1.9454754725340161e-17             179.46301014895752                     179.9754639259138                        180                              -1.0264960017026728e-20      9.03434038184324e-19    17                            2                           3                    -2.4460093469187044e-05  0.0052414452343440398  6.5073577057878415e-05        1.1794897301021687e-12              7.1732587203736783e-12       
                       1.9434238719378321e-17                          94                                          8575.8319924177722                  -4.0695357097702864e-07                -5.9565263995441206e-19             -3.1898911929547867e-19         1.8764382309606293e-17             178.46217493879348                     179.9754639259138                        180                              -1.2895167809380652e-20      1.0017406968768867e-18    18                            3                           3                    -3.7658109470449338e-05  0.0065866090534679126  8.9465021042347658e-05        1.3574689048108615e-12              8.5307276251845398e-12       
                       1.8885370839260429e-17                          100                                         7402.677668529358                   -3.5540203314030686e-07                -5.4886788011789065e-19             -3.2002816605086375e-19         1.81197234865276e-17             179.32783413525934                     179.9754639259138                        180                              -1.598808450313531e-20      1.1016636032868298e-18    19                            4                           3                    -5.6729885392913247e-05  0.0081696740075978859  0.00012176319765674775        1.4445292009857909e-12              9.9752568261703316e-12       
                       1.8885370839260429e-17                          101                                         7402.677668529358                   -3.5540203314030686e-07                 0                               -3.2002816605086375e-19         1.81197234865276e-17             179.32783413525934                     179.32783413525934                       180                              -1.598808450313531e-20      1.1016636032868298e-18    20                            0                           4                    -5.6729885392913247e-05  0.0081696740075978859  0.00012176319765674775        0                                9.9752568261703316e-12       
                       1.8401312591975251e-17                          113                                         7826.6354673479746                  -3.1814656193812244e-07                -4.8405824728517848e-19             -3.2089588271297233e-19         1.754527523158279e-17             179.89481289434613                     179.89481289434613                       180                              -1.9427134673241366e-20      1.1963603777786752e-18    21                            1                           4                    -8.1130634718981249e-05  0.0099315346814765598  0.0001629516496654328        1.4426704304495048e-12              1.1417927256619836e-11       
                       1.799397815161938e-17                          119                                         8228.3363575550557                  -2.968565324443872e-07                -4.073344403558717e-19             -3.2141333582653832e-19         1.7059798093877073e-17             179.05908420572885                     179.89481289434613                       180                              -2.2956124901603082e-20      1.2785495184704481e-18    22                            2                           4                    -0.00010809549321106303  0.01174129614450669  0.00021156099624116773        1.328606282059016e-12              1.2746533538678853e-11       
                       1.7617345365400014e-17                          125                                         7782.4002715047018                  -2.8336773383135369e-07                -3.7663278621936708e-19             -3.2161215400585272e-19         1.6610194319877715e-17             175.67779475288114                     179.89481289434613                       180                              -2.6788643109345019e-20      1.3555518426374973e-18    23                            3                           4                    -0.00013832851431598469  0.013708836879230571  0.00027185813851963759        1.2997038881162625e-12              1.4046237426795114e-11       
                       1.7239780451344807e-17                          131                                         7202.5608443061356                  -2.7188105923903677e-07                -3.7756491405520613e-19             -3.2157220121636804e-19         1.6158170770508626e-17             178.01800341882162                     179.89481289434613                       180                              -3.1253656130405226e-20      1.4344355381829546e-18    24                            4                           4                    -0.00017389248091529154  0.01600386556431117  0.00035221751420756584        1.3608481456240045e-12              1.5407085572419119e-11       
                       1.7239780451344807e-17                          132                                         7202.5608443061356                  -2.7188105923903677e-07                 0                               -3.2157220121636804e-19         1.6158170770508626e-17             178.01800341882162                     178.01800341882162                       180                              -3.1253656130405226e-20      1.4344355381829546e-18    25                            0                           5                    -0.00017389248091529154  0.01600386556431117  0.00035221751420756584        0                                1.5407085572419119e-11       
                       1.6875247515339994e-17                          138                                         6879.5516831490513                  -2.6421877657875509e-07                -3.6453293600481316e-19             -3.2143441788616807e-19         1.5720249529122723e-17             177.7594317534863                      178.01800341882162                       180                              -3.625736687823635e-20      1.5126897709816765e-18    26                            1                           5                    -0.00021348008752654493  0.018579242002207029  0.00045556811453214858        1.3623830889400932e-12              1.6769468661359212e-11       
                       1.6524516657755477e-17                          144                                         7292.4248942426539                  -2.6350532714091076e-07                -3.507308575845163e-19             -3.2131205619488714e-19         1.5297881674649519e-17             178.80750721100742                     178.80750721100742                       180                              -4.1744921112364472e-20      1.5896919604132096e-18    27                            2                           5                    -0.00025588247799781464  0.021407704751460001  0.00058554989162933058        1.3322825639522667e-12              1.8101751225311478e-11       
                       1.6162153010532885e-17                          150                                         7899.6312602841881                  -2.6934778514002992e-07                -3.6236364722259331e-19             -3.2124525838272172e-19         1.4860244114173106e-17             178.85047247952608                     178.85047247952608                       180                              -4.8017384595746346e-20      1.6711715393382474e-18    28                            3                           5                    -0.00030247825962321037  0.024645842545473796  0.00075657132941346638        1.3623099741958486e-12              1.9464061199507328e-11       
                       1.5744462661167714e-17                          156                                         8036.7301139675292                  -2.7961077881666217e-07                -4.1769034936517018e-19             -3.2125416767651349e-19         1.4353173048744511e-17             178.41591755682836                     178.85047247952608                       180                              -5.5815790532386159e-20      1.7683595706321043e-18    29                            4                           5                    -0.00035717664844294957  0.02867945524452338  0.0010059522822290757        1.5224539037472112e-12              2.098651510325454e-11       
                       1.5744462661167714e-17                          157                                         8036.7301139675292                  -2.7961077881666217e-07                 0                               -3.2125416767651349e-19         1.4353173048744511e-17             178.41591755682836                     178.41591755682836                       180                              -5.5815790532386159e-20      1.7683595706321043e-18    30                            0                           6                    -0.00035717664844294957  0.02867945524452338  0.0010059522822290757        0                                2.098651510325454e-11       
                       1.5283344135617321e-17                          163                                         8640.6234165633123                  -2.9014506787019108e-07                -4.6111852555039488e-19             -3.2131755777600852e-19         1.378999865886599e-17             175.44477711299399                     178.41591755682836                       180                              -6.4921899172387523e-20      1.8795849336997253e-18    31                            1                           6                    -0.00041587187175641088  0.033400855239049801  0.0013564546251077926        1.6175760038020319e-12              2.2604091107056569e-11       
                       1.4814665342863948e-17                          169                                         9118.8223617152053                  -2.9635396554244203e-07                -4.6867879275337133e-19             -3.2131139293522786e-19         1.3215874764819621e-17             171.09469710221552                     178.41591755682836                       180                              -7.457348713630862e-20      1.9946754581158638e-18    32                            2                           6                    -0.00047115187852602293  0.038419592249439    0.0018104312496689289        1.5953425248013696e-12              2.4199433631857941e-11       
                       1.4347931538680417e-17                          175                                         10904.226097327317                  -2.9440282123262903e-07                -4.6673380418353198e-19             -3.2105536897365561e-19         1.2644585949405671e-17             170.35194353379788                     178.41591755682836                       180                              -8.4583061853512687e-20      2.1089840201019133e-18    33                            3                           6                    -0.00052070328428520656  0.043641730920008268  0.0023895762553390655        1.575800088385754e-12              2.5775233720243693e-11       
                       1.3902872405214873e-17                          181                                         11821.449422217323                  -2.8192688601908351e-07                -4.4505913346554291e-19             -3.2052473362413484e-19         1.2102215592541205e-17             166.19865877172589                     178.41591755682836                       180                              -9.4650167811932692e-20      2.2158317141097363e-18    34                            4                           6                    -0.00056393864024772229  0.048913174159980061  0.0031097631817915009        1.5392847335664827e-12              2.7314518453810178e-11       
# Table End
