# ODT 1.0
# Table Start
# Title: mmArchive Data Table, Wed Jun 11 15:41:04 EDT 2014
# Columns: {Oxs_RungeKuttaEvolve:evolver:Total energy} {Oxs_RungeKuttaEvolve:evolver:Energy calc count} {Oxs_RungeKuttaEvolve:evolver:Max dm/dt} Oxs_RungeKuttaEvolve:evolver:dE/dt {Oxs_RungeKuttaEvolve:evolver:Delta E} Oxs_UniformExchange:NiFe:Energy {Oxs_UniformExchange:NiFe:Max Spin Ang} {Oxs_UniformExchange:NiFe:Stage Max Spin Ang} {Oxs_UniformExchange:NiFe:Run Max Spin Ang} Oxs_UZeeman::Energy  Oxs_UZeeman::B       Oxs_UZeeman::Bx      Oxs_UZeeman::By      Oxs_UZeeman::Bz      Oxs_Demag::Energy    Oxs_TimeDriver::Iteration {Oxs_TimeDriver::Stage iteration} Oxs_TimeDriver::Stage Oxs_TimeDriver::mx   Oxs_TimeDriver::my   Oxs_TimeDriver::mz   {Oxs_TimeDriver::Last time step} {Oxs_TimeDriver::Simulation time}
# Units:                        J                                             {}                                         deg/ns                                 J/s                                   J                                   J                                  deg                                        deg                                          deg                              J                 mT                   mT                   mT                   mT                     J                       {}                            {}                          {}                   {}                   {}                   {}                          s                                 s                
                       3.9207800838461202e-17                            1                                            2180.5957753880675                   -1.5452827616705979e-07                  0                                  0                                   0                                          0                                            0                                0                    0                    0                    0                    0                    3.9207800838461202e-17    0                             0                           0                     0                    1                    0                          0                                0                         
                       3.9207127928844195e-17                            7                                            2180.1391626881559                   -1.5438624422737739e-07                 -6.7290961700558192e-22                6.198035657648877e-25                 0.0060943820201833782                        0.0060943820201833782                          0.0060943820201833782              0                    0                    0                    0                    0                    3.9207127309040631e-17    1                             1                           0                     1.2942134934613596e-07  0.99999999952663166  2.5868060050891057e-07        4.356607541491426e-15              4.356607541491426e-15       
                       3.9204442469588422e-17                            13                                           2178.3007620044277                   -1.5381942625711028e-07                 -2.6854592557757783e-21                1.5451484741383838e-23                 0.030419182904095045                        0.030419182904095045                          0.030419182904095045              0                    0                    0                    0                    0                    3.9204427018103681e-17    2                             2                           0                     6.4835873191781432e-07  0.99999998818754909  1.2926660872943082e-06        1.7426430165965704e-14              2.1783037707457129e-14       
                       3.9193798863206916e-17                            19                                           2170.7615227429524                   -1.5157299801856492e-07                 -1.0643606381503073e-20                2.6950102759513577e-22                 0.12686449084339579                        0.12686449084339579                          0.12686449084339579              0                    0                    0                    0                    0                    3.9193529362179323e-17    3                             3                           0                     2.7441062900103646e-06  0.99999979315994958  5.4168222282172946e-06        6.9705720663862816e-14              9.1488758371319952e-14       
                       3.9152756020958133e-17                            25                                           2137.9851369159605                   -1.4291386309946108e-07                 -4.1042842248784956e-20                4.2184739908577217e-21                 0.49853361040435795                        0.49853361040435795                          0.49853361040435795              0                    0                    0                    0                    0                    3.9148537546967272e-17    4                             4                           0                     1.1444918872301101e-05  0.99999671060591822  2.1725188701631706e-05        2.7882288265545126e-13              3.7031164102677123e-13       
                       3.9151508931881106e-17                            26                                           2939.0081610876073                   -9.1623521594955174e-07                 -1.2470890770252458e-21                4.2184739908577217e-21                 0.49853361040435795                        0.49853361040435795                          0.49853361040435795             -1.2470890770252446e-21  100.00000000000001   100.00000000000001   0                    0                    3.9148537546967272e-17    5                             0                           1                     1.1444918872301101e-05  0.99999671060591822  2.1725188701631706e-05        0                                3.7031164102677123e-13       
                       3.9150261842804079e-17                            27                                           3824.5902143058324                   -3.2232966153477394e-06                 -1.2470890770252428e-21                4.2184739908577217e-21                 0.49853361040435795                        0.49853361040435795                          0.49853361040435795             -2.4941781540504893e-21  200.00000000000003   200.00000000000003   0                    0                    3.9148537546967272e-17    6                             0                           2                     1.1444918872301101e-05  0.99999671060591822  2.1725188701631706e-05        0                                3.7031164102677123e-13       
                       3.9142255479460913e-17                            33                                           3823.9778677141312                   -3.2232421476226374e-06                 -8.0063633431675281e-21                4.2735097499388533e-21                 0.50174088630340707                        0.50174088630340707                          0.50174088630340707             -1.0132476634971467e-20  200.00000000000003   200.00000000000003   0                    0                    3.9148114446345948e-17    7                             1                           2                     4.6494422571382785e-05  0.99999666222989458  9.1791427479464074e-05        2.4839262424678512e-15              3.7279556726923907e-13       
                       3.9110231368221349e-17                            39                                           3821.5184691549721                   -3.2230271763867648e-06                 -3.2024111239566102e-20                4.4969827385424845e-21                 0.51455316625831704                        0.51455316625831704                          0.51455316625831704             -4.0716096690526445e-20  200.00000000000003   200.00000000000003   0                    0                    3.9146450482173334e-17    8                             2                           2                     0.00018683205233879595  0.99999640462612416  0.00037198942330263587        9.9357049698714046e-15              3.8273127223911048e-13       
                       3.8982155591786849e-17                            45                                           3811.5235438419763                   -3.2222135945364063e-06                 -1.2807577643449713e-19                5.4436590815484416e-21                 0.56553226249333666                        0.56553226249333666                          0.56553226249333666             -1.6353704352561558e-19  200.00000000000003   200.00000000000003   0                    0                    3.9140248976230915e-17    9                             3                           2                     0.00075041479804764438  0.99999434880191651  0.0014917101954827964        3.9742819879485619e-14              4.2247409211859607e-13       
                       3.8470131932922581e-17                            51                                           3784.5072111745408                   -3.2196942559646954e-06                 -5.1202365886426848e-19                1.0043758513459317e-20                 0.76508402899567363                        0.76508402899567363                          0.76508402899567363             -6.6258172946189867e-19  200.00000000000003   200.00000000000003   0                    0                    3.912266990387102e-17    10                            4                           2                     0.0030403578540071207  0.99996972964645015  0.0059534628898491688        1.5897127951794247e-13              5.814453716365386e-13       
                       3.8138841068191635e-17                            52                                           4662.6412603057497                   -7.0613246796874357e-06                 -3.3129086473094933e-19                1.0043758513459317e-20                 0.76508402899567363                        0.76508402899567363                          0.76508402899567363             -9.9387259419284795e-19  300                  300                  0                    0                    3.912266990387102e-17    11                            0                           3                     0.0030403578540071207  0.99996972964645015  0.0059534628898491688        0                                5.814453716365386e-13       
                       3.8124453814348903e-17                            58                                           4662.0465118468537                   -7.0613287296116171e-06                 -1.4387253842726841e-20                1.0110856003675192e-20                 0.76759580585463361                        0.76759580585463361                          0.76759580585463361             -1.0082753548510333e-18  300                  300                  0                    0                    3.9122618313196264e-17    12                            1                           3                     0.0030844173710341109  0.99996902703257795  0.0060391461482586645        2.0374717825443518e-15              5.834828434190829e-13       
                       3.8066904704706361e-17                            64                                           4659.6622558233803                   -7.0613487754643359e-06                 -5.754910964254749e-20                1.0381241201594316e-20                 0.7776319025633357                         0.7776319025633357                           0.7776319025633357              -1.0659321244839811e-18  300                  300                  0                    0                    3.9122455587988745e-17    13                            2                           3                     0.0032607953227096731  0.999966122016827    0.0063818113050298437        8.149887130177407e-15              5.9163273054926032e-13       
                       3.7836705880954916e-17                            70                                           4657.4603455983879                   -7.0614904099679853e-06                 -2.3019882375144402e-19                1.1494448612721649e-20                 0.81759988614434709                        0.81759988614434709                          0.81759988614434709             -1.2972903543850526e-18  300                  300                  0                    0                    3.9122501786727248e-17    14                            3                           3                     0.0039685437961849562  0.99995298899160301  0.0077513853382890352        3.2599548520709628e-14              6.2423227906997e-13       
                       3.6915816548912727e-17                            76                                           4659.361795413206                    -7.0630345365369366e-06                 -9.2088933204219021e-19                1.6437725935388705e-20                 0.97463835530342435                        0.97463835530342435                          0.97463835530342435             -2.2343907075957775e-18  300                  300                  0                    0                    3.9133769530573114e-17    15                            4                           3                     0.0068352295620712012  0.99987624862385438  0.013212260203874076        1.3039819408283851e-13              7.5463047315280851e-13       
                       3.6171019646380797e-17                            77                                           5543.3266197282583                   -1.2439269632845315e-05                 -7.4479690253192579e-19                1.6437725935388705e-20                 0.97463835530342435                        0.97463835530342435                          0.97463835530342435             -2.9791876101277032e-18  400.00000000000006   400.00000000000006   0                    0                    3.9133769530573114e-17    16                            0                           4                     0.0068352295620712012  0.99987624862385438  0.013212260203874076        0                                7.5463047315280851e-13       
                       3.6149701511819056e-17                            83                                           5543.393315813988                    -1.2439337345869688e-05                 -2.1318134561742966e-20                1.6507751328205377e-20                 0.97667176397499822                        0.97667176397499822                          0.97667176397499822             -3.001031524219856e-18  400.00000000000006   400.00000000000006   0                    0                    3.9134225284710708e-17    17                            1                           4                     0.0068853466365536731  0.99987457846982797  0.013307962043902754        1.7137723702208444e-15              7.5634424552302934e-13       
                       3.6064427801767047e-17                            89                                           5543.6571000645199                   -1.2439612616019505e-05                 -8.5273710052010115e-20                1.6789129017443689e-20                 0.98479794670323872                        0.98479794670323872                          0.98479794670323872             -3.08846434565195e-18  400.00000000000006   400.00000000000006   0                    0                    3.9136103018401551e-17    18                            2                           4                     0.0070859460898127858  0.99986777993736908  0.013690704231945858        6.8550894808833775e-15              7.6319933500391267e-13       
                       3.5723313365243767e-17                            95                                           5544.664555231293                    -1.2440784314473259e-05                 -3.4111443652328133e-19                1.7934911613723603e-20                 1.0171833772378056                         1.0171833772378056                           1.0171833772378056              -3.4391096876192057e-18  400.00000000000006   400.00000000000006   0                    0                    3.9144488141249246e-17    19                            3                           4                     0.0078904410464477655  0.99983869906653988  0.015220629041230027        2.742035792353351e-14              7.9061969292744617e-13       
                       3.4358488009620378e-17                            101                                          5547.9518128229656                   -1.2446596380671149e-05                 -1.3648253556233841e-18                2.2833163549677381e-20                 1.1448135177248375                         1.1448135177248375                           1.1448135177248375              -4.856278136836278e-18  400.00000000000006   400.00000000000006   0                    0                    3.9191932982906983e-17    20                            4                           4                     0.011141888402630853  0.9996921819539949   0.021323549452747784        1.0968143169413404e-13              9.0030112462158027e-13       
                       3.3144418475411312e-17                            102                                          6438.2428641622737                   -1.9357201802545321e-05                 -1.2140695342090695e-18                2.2833163549677381e-20                 1.1448135177248375                         1.1448135177248375                           1.1448135177248375              -6.0703476710453473e-18  500.00000000000006   500.00000000000006   0                    0                    3.9191932982906983e-17    21                            0                           5                     0.011141888402630853  0.9996921819539949   0.021323549452747784        0                                9.0030112462158027e-13       
                       3.3115855707183563e-17                            108                                          6438.3161833165059                   -1.935733274351089e-05                 -2.8562768227749135e-20                2.2902396512216062e-20                 1.146509361614789                          1.146509361614789                            1.146509361614789               -6.1000353889989902e-18  500.00000000000006   500.00000000000006   0                    0                    3.9192988699670335e-17    22                            1                           5                     0.01119637906087536  0.99968932046527503  0.021426229017950826        1.4755578813096099e-15              9.0177668250288987e-13       
                       3.3001602691798767e-17                            114                                          6438.6069858418314                   -1.9357861189752609e-05                 -1.1425301538479273e-19                2.318019238119715e-20                 1.1532874829958679                         1.1532874829958679                           1.1532874829958679              -6.2188520669915461e-18  500.00000000000006   500.00000000000006   0                    0                    3.9197274566409116e-17    23                            2                           5                     0.011414462478548272  0.99967773844782881  0.02183688504920302        5.9022315252384397e-15              9.0767891402812834e-13       
                       3.2544558777202032e-17                            120                                          6439.7308004154474                   -1.9360049843515448e-05                 -4.5704391459673573e-19                2.430510988169222e-20                 1.1803158690278821                         1.1803158690278821                           1.1803158690278821              -6.6951709883606962e-18  500.00000000000006   500.00000000000006   0                    0                    3.921542465568104e-17    24                            3                           5                     0.012288727438901468  0.99962923327709141  0.02347851179765046        2.3608926100953759e-14              9.3128784012908203e-13       
                       3.071582406866243e-17                            126                                          6443.6078258273092                   -1.9369999101745143e-05                 -1.8287347085396006e-18                2.9018810144547889e-20                 1.2870825198270304                         1.2870825198270304                           1.2870825198270304              -8.6172373548377205e-18  500.00000000000006   500.00000000000006   0                    0                    3.9304042613355606e-17    25                            4                           5                     0.015816605925974898  0.99940037217653976  0.030028952179405041        9.4435704403815035e-14              1.0257235445328972e-12       
                       2.8992376597694889e-17                            127                                          7337.5344477822018                   -2.7814463987536734e-05                 -1.723447470967544e-18                2.9018810144547889e-20                 1.2870825198270304                         1.2870825198270304                           1.2870825198270304              -1.0340684825805264e-17  600                  600                  0                    0                    3.9304042613355606e-17    26                            0                           6                     0.015816605925974898  0.99940037217653976  0.030028952179405041        0                                1.0257235445328972e-12       
                       2.8956364731897623e-17                            133                                          7337.6085916793008                   -2.7814653104652525e-05                 -3.6011865797262919e-20                2.9085745773746362e-20                 1.288530913560779                          1.288530913560779                            1.288530913560779               -1.037848631294431e-17  600                  600                  0                    0                    3.9305765299068191e-17    27                            1                           6                     0.015874425232487565  0.99939615348278965  0.030136787116309141        1.2947128313477848e-15              1.0270182573642448e-12       
                       2.8812314811070293e-17                            139                                          7337.9029949638343                   -2.7815414266330645e-05                 -1.4404992082733302e-19                2.9354099653676931e-20                 1.2943206399395204                         1.2943206399395204                           1.2943206399395204              -1.0529764714966224e-17  600                  600                  0                    0                    3.9312725426382839e-17    28                            2                           6                     0.016105813279816961  0.99937912818554331  0.030568066948684948        5.1788513253911392e-15              1.0321971086896361e-12       
                       2.8236075125151281e-17                            145                                          7339.0459685092346                   -2.7818533979053822e-05                 -5.7623968591900954e-19                3.0437237063934563e-20                 1.3174179376247108                         1.3174179376247108                           1.3174179376247108              -1.1136036774657307e-17  600                  600                  0                    0                    3.9341674662744653e-17    29                            3                           6                     0.017033137380067374  0.99930861855694941  0.032292225511262998        2.0715405301564557e-14              1.0529125139912005e-12       
                       2.593043284179845e-17                            151                                          7343.0711046929937                   -2.7832212124410194e-05                 -2.3056422833528319e-18                3.4921538452428837e-20                 1.408819834946931                          1.408819834946931                            1.408819834946931               -1.3579608113962394e-17  600                  600                  0                    0                    3.9475119417308416e-17    30                            4                           6                     0.020770704627968244  0.99898803949009418  0.039173352078037647        8.2861621206258227e-14              1.1357741351974588e-12       
                       2.366716482280472e-17                            152                                          8239.2120301323666                   -3.7809737319510077e-05                 -2.2632680189937321e-18                3.4921538452428837e-20                 1.408819834946931                          1.408819834946931                            1.408819834946931               -1.5842876132956124e-17  700                  700                  0                    0                    3.9475119417308416e-17    31                            0                           7                     0.020770704627968244  0.99898803949009418  0.039173352078037647        0                                1.1357741351974588e-12       
                       2.3623569193380782e-17                            158                                          8239.2832257511564                   -3.7809975262789719e-05                 -4.3595629423937418e-20                3.4985597928017531e-20                 1.4100800765943204                         1.4100800765943204                           1.4100800765943204              -1.5888975537699843e-17  700                  700                  0                    0                    3.9477559133152606e-17    32                            1                           7                     0.020831142967031254  0.99898233726816943  0.039285132905603037        1.153022881952387e-15              1.1369271580794112e-12       
                       2.3449183924388405e-17                            164                                          8239.5660084974734                   -3.7810931520447901e-05                 -1.7438526899237691e-19                3.5242282820828152e-20                 1.4151181269906394                         1.4151181269906394                           1.4151181269906394              -1.6073450746996997e-17  700                  700                  0                    0                    3.9487392388564575e-17    33                            2                           7                     0.021072998047594764  0.99895936614063918  0.039732197857275608        4.6120915278095479e-15              1.1415392496072206e-12       
                       2.2751598248549687e-17                            170                                          8240.6652182030102                   -3.7814828302897084e-05                 -6.9758567583871731e-19                3.6276132088151592e-20                 1.43522363193424                           1.43522363193424                             1.43522363193424                -1.6812592099567309e-17  700                  700                  0                    0                    3.9527914216028847e-17    34                            3                           7                     0.022042044739856586  0.99886488574942678  0.041519521458969033        1.8448366111238192e-14              1.159987615718459e-12       
# Table End
