# ODT 1.0
# Table Start
# Title: mmArchive Data Table, Wed Jun 11 15:41:19 EDT 2014
# Columns: {Oxs_RungeKuttaEvolve:evolve:Total energy} {Oxs_RungeKuttaEvolve:evolve:Energy calc count} {Oxs_RungeKuttaEvolve:evolve:Max dm/dt} Oxs_RungeKuttaEvolve:evolve:dE/dt {Oxs_RungeKuttaEvolve:evolve:Delta E} Oxs_UniformExchange:NiFe:Energy {Oxs_UniformExchange:NiFe:Max Spin Ang} {Oxs_UniformExchange:NiFe:Stage Max Spin Ang} {Oxs_UniformExchange:NiFe:Run Max Spin Ang} Oxs_UZeeman::Energy  Oxs_UZeeman::B       Oxs_UZeeman::Bx      Oxs_UZeeman::By      Oxs_UZeeman::Bz      Oxs_Demag::Energy    Oxs_TimeDriver::Iteration {Oxs_TimeDriver::Stage iteration} Oxs_TimeDriver::Stage Oxs_TimeDriver::mx   Oxs_TimeDriver::my   Oxs_TimeDriver::mz   {Oxs_TimeDriver::Last time step} {Oxs_TimeDriver::Simulation time}
# Units:                       J                                            {}                                        deg/ns                                 J/s                                  J                                  J                                  deg                                        deg                                          deg                              J                 mT                   mT                   mT                   mT                     J                       {}                            {}                          {}                   {}                   {}                   {}                          s                                 s                
                       5.6441388447898217e-17                          1                                           2369.9054836061264                  -3.7857089861026549e-07                 0                                  0                                   0                                          0                                            0                                0                    0                    0                    0                    0                    5.6441388447898217e-17    0                             0                           0                    -1                    0                    0                          0                                0                         
                       5.643987110113037e-17                          7                                           2369.7219839764393                  -3.7847509274214779e-07                -1.5173467678411798e-21                2.5124579349752345e-25                 0.0062799851903152341                        0.0062799851903152341                          0.0062799851903152341              0                    0                    0                    0                    0                    5.6439870849884581e-17    1                             1                           0                    -0.99999999746643298  9.6238498305644041e-06  1.9244578562641288e-05        4.0085986828236234e-15              4.0085986828236234e-15       
                       5.6433805552004425e-17                          13                                          2368.987062591571                   -3.7809228954935313e-07                -6.0655491259516718e-21                6.2758532306490116e-24                 0.031384561641186665                        0.031384561641186665                          0.031384561641186665              0                    0                    0                    0                    0                    5.6433799276151198e-17    2                             2                           0                    -0.99999993669287524  4.8146861519803667e-05  9.6215691131777174e-05        1.6034394731294494e-14              2.0042993414118117e-14       
                       5.6409604574170379e-17                          19                                          2366.0326969061439                  -3.7656778900318677e-07                -2.4200977834040581e-20                1.1033331764088727e-22                 0.13155672805574775                        0.13155672805574775                          0.13155672805574775              0                    0                    0                    0                    0                    5.6409494240852742e-17    3                             3                           0                    -0.99999888551899108  0.00020268074335283128  0.00040398469193543655        6.4137578925177975e-14              8.4180572339296092e-14       
                       5.6313768167305461e-17                          25                                          2353.9858314011285                  -3.705763949572606e-07                -9.5836406864927737e-20                1.7833612400409337e-21                 0.52828841213510458                        0.52828841213510458                          0.52828841213510458              0                    0                    0                    0                    0                    5.6311984806065421e-17    4                             4                           0                    -0.99998188785287312  0.00082788788982346363  0.0016331994689435427        2.565503157007119e-13              3.4073088804000799e-13       
                       5.6355657702403698e-17                          26                                          2361.0011684210572                  -3.7264053467936189e-07                 4.1889535098243939e-20                1.7833612400409337e-21                 0.52828841213510458                        0.52828841213510458                          0.52828841213510458              4.1889535098243939e-20  1.0049875621120892   0.10000000000000001  1                    0                    5.6311984806065421e-17    5                             0                           1                    -0.99998188785287312  0.00082788788982346363  0.0016331994689435427        0                                3.4073088804000799e-13       
                       5.6354158488509481e-17                          32                                          2360.8107233143724                  -3.7254805244330333e-07                -1.4992138942181852e-21                1.8253426025755868e-21                 0.53446009384862503                        0.53446009384862503                          0.53446009384862503              4.1885217357312553e-20  1.0049875621120892   0.10000000000000001  1                    0                    5.6310447928549589e-17    6                             1                           1                    -0.99998145871552535  0.00083806690064215151  0.0016530209288901387        4.0237167719629798e-15              3.4475460481197094e-13       
                       5.6348165351650603e-17                          38                                          2360.0480744796396                  -3.7217853853589051e-07                -5.9931368588794654e-21                1.9980578560296232e-21                 0.55913109962384933                        0.55913109962384933                          0.55913109962384933              4.1867932086305958e-20  1.0049875621120892   0.10000000000000001  1                    0                    5.6304299361708261e-17    7                             2                           1                    -0.99997969248252627  0.00087881184696012374  0.0017322990261967586        1.6094867087851919e-14              3.6084947189982286e-13       
                       5.6324252116905214e-17                          44                                          2356.9836705235002                  -3.707071108720261e-07                -2.3913234745384792e-20                2.7652078736246083e-21                 0.65756334058902244                        0.65756334058902244                          0.65756334058902244              4.1798562163130196e-20  1.0049875621120892   0.10000000000000001  1                    0                    5.6279688346868467e-17    8                             3                           1                    -0.99997183470529383  0.0010422541070582837  0.0020492873246070751        6.4379468351407677e-14              4.2522894025123058e-13       
                       5.6229536295336379e-17                          50                                          2344.5106031745859                  -3.6492663415278811e-07                -9.4715821568844271e-20                7.0323614737366165e-21                 1.0472492074519295                         1.0472492074519295                           1.0472492074519295               4.1517425995552176e-20  1.0049875621120892   0.10000000000000001  1                    0                    5.6180986507867083e-17    9                             4                           1                    -0.99992785074255008  0.0017034242893303546  0.0033152417640984785        2.5751787340563071e-13              6.8274681365686123e-13       
                       5.6271053721331927e-17                          51                                          2351.6011645588501                  -3.6705683115342276e-07                 4.1517425995552182e-20                7.0323614737366165e-21                 1.0472492074519295                         1.0472492074519295                           1.0472492074519295               8.3034851991104351e-20  2.0099751242241783   0.20000000000000001  2                    0                    5.6180986507867083e-17    10                            0                           2                    -0.99992785074255008  0.0017034242893303546  0.0033152417640984785        0                                6.8274681365686123e-13       
                       5.6269571065092942e-17                          57                                          2351.4041577657104                  -3.6696762582944963e-07                -1.4826562389781165e-21                7.114311535640561e-21                 1.0533107180616683                         1.0533107180616683                           1.0533107180616683               8.3025697975263956e-20  2.0099751242241783   0.20000000000000001  2                    0                    5.6179431055582049e-17    11                            1                           2                    -0.99992699996417533  0.0017141749310009364  0.0033356444981499076        4.0398006869426589e-15              6.8678661434380397e-13       
                       5.6263644041371481e-17                          63                                          2350.6153164772722                  -3.6661121421821049e-07                -5.9270237214640849e-21                7.4466779679864539e-21                 1.0775407217092818                         1.0775407217092818                           1.0775407217092818               8.2989052262332648e-20  2.0099751242241783   0.20000000000000001  2                    0                    5.617320831114117e-17    12                            2                           2                    -0.99992354805291772  0.0017572077144624252  0.0034172471448460986        1.6159202747770636e-14              7.0294581709157452e-13       
                       5.6239993381123665e-17                          69                                          2347.4470112892723                  -3.6519210959938717e-07                -2.3650660247824369e-20                8.8488630274136838e-21                 1.1742039352061235                         1.1742039352061235                           1.1742039352061235               8.2841995177337687e-20  2.0099751242241783   0.20000000000000001  2                    0                    5.6148302522918907e-17    13                            3                           2                    -0.99990896167926346  0.0019298223311156513  0.0037435248999324318        6.4636810991082542e-14              7.6758262808265713e-13       
                       5.6146297919659567e-17                          75                                          2334.5722248795241                  -3.5961951326146077e-07                -9.3695461464095776e-20                1.5599586640968925e-20                 1.5567374841362227                         1.5567374841362227                           1.5567374841362227               8.2246189340114893e-20  2.0099751242241783   0.20000000000000001  2                    0                    5.6048452143678482e-17    14                            4                           2                    -0.99983828553422704  0.0026280173080215612  0.0050464980551356287        2.5854724396433017e-13              1.0261298720469873e-12       
                       5.6187421014329619e-17                          76                                          2341.7377514949681                  -3.6181586715612404e-07                 4.1123094670057447e-20                1.5599586640968925e-20                 1.5567374841362227                         1.5567374841362227                           1.5567374841362227               1.2336928401017236e-19  3.0149626863362675   0.30000000000000004  3.0000000000000004   0                    5.6048452143678482e-17    15                            0                           3                    -0.99983828553422704  0.0026280173080215612  0.0050464980551356287        0                                1.0261298720469873e-12       
                       5.6185953368207366e-17                          82                                          2341.5345642160069                  -3.6172989333461664e-07                -1.4676461222564292e-21                1.5719809648416786e-20                 1.5626871637506139                         1.5626871637506139                           1.5626871637506139               1.2335475427236081e-19  3.0149626863362675   0.30000000000000004  3.0000000000000004   0                    5.6046878804286586e-17    16                            1                           3                    -0.99983701727148311  0.0026393564995908776  0.0050674865711831689        4.0568163509919888e-15              1.0301866883979793e-12       
                       5.6180086269058896e-17                          88                                          2340.7210549645133                  -3.6138640217613146e-07                -5.8670991484732894e-21                1.620505098884042e-20                 1.5864695642616424                         1.5864695642616424                           1.5864695642616424               1.2329658925547323e-19  3.0149626863362675   0.30000000000000004  3.0000000000000004   0                    5.6040584628814579e-17    17                            2                           3                    -0.99983189623942248  0.0026847448200650248  0.0051514317921074922        1.6227265403967955e-14              1.0464139538019473e-12       
                       5.6156673454557186e-17                          94                                          2337.4549412399228                  -3.600188898708187e-07                -2.3412814501706147e-20                1.8215274882620113e-20                 1.6813379619900821                         1.6813379619900821                           1.6813379619900821               1.2306319238602681e-19  3.0149626863362675   0.30000000000000004  3.0000000000000004   0                    5.6015394987288541e-17    18                            3                           3                    -0.99981064639187633  0.0028668029709215392  0.0054870709957228706        6.4909061615871821e-14              1.1113230154178191e-12       
                       5.6063899851316131e-17                          100                                         2324.202704836192                   -3.5465119301523013e-07                -9.2773603241051942e-20                2.7343384232007036e-20                 2.0566258136628357                         2.0566258136628357                           2.0566258136628357               1.2211783198439369e-19  3.0149626863362675   0.30000000000000004  3.0000000000000004   0                    5.5914438635099729e-17    19                            4                           3                    -0.99971352081029097  0.0036031134569810544  0.0068273491209284633        2.5963624646348728e-13              1.3709592618813063e-12       
                       5.6104605795310926e-17                          101                                         2331.4428567268383                  -3.5691380695642606e-07                 4.0705943994797903e-20                2.7343384232007036e-20                 2.0566258136628357                         2.0566258136628357                           2.0566258136628357               1.6282377597919159e-19  4.0199502484483567   0.40000000000000002  4                    0                    5.5914438635099729e-17    20                            0                           4                    -0.99971352081029097  0.0036031134569810544  0.0068273491209284633        0                                1.3709592618813063e-12       
                       5.6103151636618808e-17                          107                                         2331.2338668074703                  -3.5683101974645307e-07                -1.4541586921201908e-21                2.7500252148354579e-20                 2.0624622097241132                         2.0624622097241132                           2.0624622097241132               1.6280330927196467e-19  4.0199502484483567   0.40000000000000002  4                    0                    5.5912848075198494e-17    21                            1                           4                    -0.99971183843039502  0.0036150585637043649  0.0068489280184042354        4.0747299349799415e-15              1.3750339918162863e-12       
                       5.6097338372770758e-17                          113                                         2330.3972005210862                  -3.5650026921373385e-07                -5.8132638480484786e-21                2.8131863443235998e-20                 2.0857912349313437                         2.0857912349313437                           2.0857912349313437               1.6272137884794088e-19  4.0199502484483567   0.40000000000000002  4                    0                    5.5906485130479588e-17    22                            2                           4                    -0.99970506167773299  0.0036628719064446622  0.0069352342040441524        1.6298919739919766e-14              1.3913329115562061e-12       
                       5.6074139070607356e-17                          119                                         2327.0393144522045                  -3.5518362566926149e-07                -2.3199302163401197e-20                3.0724222242518452e-20                 2.1788423359860736                         2.1788423359860736                           2.1788423359860736               1.6239263997380125e-19  4.0199502484483567   0.40000000000000002  4                    0                    5.5881022208391042e-17    23                            3                           4                    -0.99967720085798817  0.0038546519194865435  0.0072803083023577006        6.5195678959679064e-14              1.456528590515885e-12       
                       5.5982190377589098e-17                          125                                         2313.4336358842384                  -3.5001786476886344e-07                -9.1948693018268267e-20                4.2128003648319758e-20                 2.5468042082612441                         2.5468042082612441                           2.5468042082612441               1.6106143165204861e-19  4.0199502484483567   0.40000000000000002  4                    0                    5.5779000942288729e-17    24                            4                           4                    -0.99955381823524647  0.0046301973703708954  0.0086581833334869063        2.6078271583871626e-13              1.7173113063546014e-12       
                       5.6022455735502105e-17                          126                                         2320.7479929113383                  -3.5234684528844187e-07                 4.0265357913012154e-20                4.2128003648319758e-20                 2.5468042082612441                         2.5468042082612441                           2.5468042082612441               2.0132678956506075e-19  5.0249378105604459   0.5                  5                    0                    5.5779000942288729e-17    25                            0                           5                    -0.99955381823524647  0.0046301973703708954  0.0086581833334869063        0                                1.7173113063546014e-12       
                       5.6021013563972299e-17                          132                                         2320.5335740794635                  -3.5226719982466855e-07                -1.4421715298022631e-21                4.2319957570872583e-20                 2.5525260754322252                         2.5525260754322252                           2.5525260754322252               2.0129980196505943e-19  5.0249378105604459   0.5                  5                    0                    5.5777393804436374e-17    26                            1                           5                    -0.99955172433042827  0.0046427661995866671  0.0086803572794948297        4.0935077953390423e-15              1.7214048141499404e-12       
                       5.6015248135737853e-17                          138                                         2319.6752450791219                  -3.519490101672983e-07                -5.7654282344555291e-21                4.3091710750437561e-20                 2.5753967815539611                         2.5753967815539611                           2.5753967815539611               2.0119176928672851e-19  5.0249378105604459   0.5                  5                    0                    5.5770964655700675e-17    27                            2                           5                    -0.99954330215780385  0.0046930758186551564  0.008769043090484872        1.6374031181356169e-14              1.7377788453312965e-12       
                       5.5992238369434421e-17                          144                                         2316.2315542476331                  -3.5068251176365263e-07                -2.3009766303424211e-20                4.6241413460604206e-20                 2.6666114105423144                         2.6666114105423144                           2.6666114105423144               2.0075832256731943e-19  5.0249378105604459   0.5                  5                    0                    5.5745238633406494e-17    28                            3                           5                    -0.99950887047553061  0.0048948631046934893  0.0091236266015567741        6.5496124725424677e-14              1.8032749700567213e-12       
                       5.5901019044550759e-17                          150                                         2302.2961328455876                  -3.4571571944397823e-07                -9.1219324883666568e-20                5.9823680515879863e-20                 3.0271801098133588                         3.0271801098133588                           3.0271801098133588               1.9900350823873973e-19  5.0249378105604459   0.5                  5                    0                    5.5642191855796133e-17    29                            4                           5                    -0.99935937374165829  0.0057107914277928608  0.010539394619360241        2.6198449890169871e-13              2.06525946895842e-12       
                       5.5940819746198502e-17                          151                                         2309.6841952874488                  -3.481111762806453e-07                 3.9800701647747945e-20                5.9823680515879863e-20                 3.0271801098133588                         3.0271801098133588                           3.0271801098133588               2.3880420988648771e-19  6.029925372672535    0.60000000000000009  6.0000000000000009   0                    5.5642191855796133e-17    30                            0                           6                    -0.99935937374165829  0.0057107914277928608  0.010539394619360241        0                                2.06525946895842e-12       
                       5.5939388081841927e-17                          157                                         2309.4647163956815                  -3.4803462748709405e-07                -1.4316643565750542e-21                6.0049231406701516e-20                 3.0327864100640536                         3.0327864100640536                           3.0327864100640536               2.3877009393319344e-19  6.029925372672535    0.60000000000000009  6.0000000000000009   0                    5.5640568756502037e-17    31                            1                           6                    -0.99935687014168184  0.0057240022236089158  0.010562168324536974        4.1131164249135321e-15              2.0693725853833336e-12       
                       5.5933664570576032e-17                          163                                         2308.5861993687104                  -3.4772881811369681e-07                -5.7235112658968826e-21                6.0955178105103982e-20                 3.0551946820385636                         3.0551946820385636                           3.0551946820385636               2.3863352796385042e-19  6.029925372672535    0.60000000000000009  6.0000000000000009   0                    5.563407586450708e-17    32                            2                           6                    -0.99934680980015311  0.0057768811205415197  0.010653252595071156        1.6452465699654128e-14              2.0858250510829876e-12       
                       5.5910820686655315e-17                          169                                         2305.0625907160797                  -3.4651173792508973e-07                -2.2843883920715438e-20                6.4638556296824822e-20                 3.1446181918846556                         3.1446181918846556                           3.1446181918846556               2.3808563014711359e-19  6.029925372672535    0.60000000000000009  6.0000000000000009   0                    5.5608096500211373e-17    33                            3                           6                    -0.99930583517127214  0.0059889680866057615  0.011017420721995345        6.5809862798616513e-14              2.1516349138816043e-12       
                       5.5820236461227203e-17                          175                                         2290.8207704380484                  -3.4174093645957636e-07                -9.0584225428112813e-20                8.0306662160192648e-20                 3.4981467191481954                         3.4981467191481954                           3.4981467191481954               2.3586793168894487e-19  6.029925372672535    0.60000000000000009  6.0000000000000009   0                    5.5504061867378067e-17    34                            4                           6                    -0.99913031855808954  0.0068464552739967485  0.012471380396154991        2.6323945119446605e-13              2.4148743650760701e-12       
# Table End
