# ODT 1.0
# Table Start
# Title: mmArchive Data Table, Wed Jun 16 18:45:28 EDT 2010
# Columns: {Oxs_RungeKuttaEvolve:evolve:Total energy} {Oxs_RungeKuttaEvolve:evolve:Energy calc count} {Oxs_RungeKuttaEvolve:evolve:Max dm/dt} Oxs_RungeKuttaEvolve:evolve:dE/dt {Oxs_RungeKuttaEvolve:evolve:Delta E} Oxs_CubicAnisotropy::Energy Oxs_UniformExchange::Energy {Oxs_UniformExchange::Max Spin Ang} {Oxs_UniformExchange::Stage Max Spin Ang} {Oxs_UniformExchange::Run Max Spin Ang} Oxs_UZeeman::Energy  Oxs_UZeeman::B       Oxs_UZeeman::Bx      Oxs_UZeeman::By      Oxs_UZeeman::Bz      Oxs_Demag::Energy    Oxs_TimeDriver::Iteration {Oxs_TimeDriver::Stage iteration} Oxs_TimeDriver::Stage Oxs_TimeDriver::mx   Oxs_TimeDriver::my   Oxs_TimeDriver::mz   {Oxs_TimeDriver::Last time step} {Oxs_TimeDriver::Simulation time}
# Units:                       J                                            {}                                        deg/ns                                 J/s                                  J                                J                           J                              deg                                    deg                                      deg                            J                 mT                   mT                   mT                   mT                     J                       {}                            {}                          {}                   {}                   {}                   {}                          s                                 s                
                       5.0427954329738421e-18                          1                                           1570.9045089481203                  -1.7363966704332961e-08                 0                               -8.9917260260424522e-22         0                               0                                      0                                        0                              0                    0                    0                    0                    0                    5.0436946055764458e-18    0                             0                           0                     0.99975009371095458  0.019995001874219091  0.0099975009371095457        0                                0                         
                       5.0426904737658368e-18                          7                                           1569.7768548096856                  -1.7347803040497708e-08                -1.0495920800476842e-22             -8.9887749667339051e-22         1.0079171131262074e-25             0.0060962771097118089                    0.0060962771097118089                      0.0060962771097118089            0                    0                    0                    0                    0                    5.0435892504707991e-18    1                             1                           0                     0.9997501757751861   0.019991387989224486  0.0099964652904054735        6.0474713427114753e-15              6.0474713427114753e-15       
                       5.0422716129183263e-18                          13                                          1565.2564138962775                  -1.7283314614742348e-08                -4.1886084751101308e-22             -8.9773820321722932e-22         2.5118141716579944e-24             0.030411452388575955                    0.030411452388575955                      0.030411452388575955            0                    0                    0                    0                    0                    5.0431668393073713e-18    2                             2                           0                     0.99975049257705462  0.019976936607375855  0.0099923226753787665        2.4189885370845901e-14              3.0237356713557375e-14       
                      -4.7572409541243337e-18                          14                                          1561.1674132737007                  -1.7350050534339385e-08                -9.79951256704266e-18             -8.9773820321722932e-22         2.5118141716579944e-24             0.030411452388575955                    0.030411452388575955                      0.030411452388575955           -9.79951256704266e-18  50.002499937503131   50.000000000000007   0.5                  0                    5.0431668393073713e-18    3                             0                           1                     0.99975049257705462  0.019976936607375855  0.0099923226753787665        0                                3.0237356713557375e-14       
                      -4.7573464809746546e-18                          20                                          1560.6411364790856                  -1.7333127154126536e-08                -1.0552685032049972e-22             -8.9742351385240257e-22         3.6215011366260192e-24             0.036509744926267095                    0.036509744926267095                      0.036509744926267095           -9.7995130055332853e-18  50.002499937503131   50.000000000000007   0.5                  0                    5.0430603265713464e-18    4                             1                           1                     0.99975058007952233  0.019972660754738737  0.0099914938713286557        6.0851897876083061e-15              3.632254650116568e-14       
                      -4.757767560177352e-18                          26                                          1558.5237754407458                  -1.72656111881623e-08                -4.2107920269764359e-22             -8.9620622973726095e-22         1.0068092334525231e-23             0.060829965526961932                    0.060829965526961932                      0.060829965526961932           -9.7995146467778227e-18  50.002499937503131   50.000000000000007   0.5                  0                    5.0426332247378727e-18    5                             2                           1                     0.99975091853882281  0.019955562217928616  0.0099881764170045278        2.4340759150433224e-14              6.0663305651598901e-14       
                      -1.4557282206955173e-17                          27                                          1557.4571557582963                  -1.7342380262893943e-08                -9.7995146467778227e-18             -8.9620622973726095e-22         1.0068092334525231e-23             0.060829965526961932                    0.060829965526961932                      0.060829965526961932           -1.9599029293555645e-17  100.00499987500626   100.00000000000001   1                    0                    5.0426332247378727e-18    6                             0                           2                     0.99975091853882281  0.019955562217928616  0.0099881764170045278        0                                6.0663305651598901e-14       
                      -1.4557387936288816e-17                          33                                          1556.8832679926616                  -1.7324761248333167e-08                -1.0572933364230861e-22             -8.9587309520100179e-22         1.2183979793475047e-23             0.066904763271868006                    0.066904763271868006                      0.066904763271868006           -1.9599030143491746e-17  100.00499987500626   100.00000000000001   1                    0                    5.0425258963183376e-18    7                             1                           2                     0.99975101116293785  0.019950636215112276  0.0099875574802106171        6.0996862513207498e-15              6.6762991902919661e-14       
                      -1.4557809780641987e-17                          39                                          1554.5760348962729                  -1.7254473469483471e-08                -4.2184435316994089e-22             -8.9458204565244437e-22         2.2638397754263219e-23             0.091128546888098988                    0.091128546888098988                      0.091128546888098988           -1.9599033317872173e-17  100.00499987500626   100.00000000000001   1                    0                    5.042095480878085e-18    8                             2                           2                     0.99975137010459203  0.019930937868192382  0.0099850766276591996        2.4398745005282999e-14              9.1161736908202651e-14       
                       5.0392703053191037e-18                          40                                          1560.6848078720409                  -1.7115492979091557e-08                 1.9597080085961091e-17             -8.9458204565244437e-22         2.2638397754263219e-23             0.091128546888098988                    0.091128546888098988                      0.091128546888098988           -1.9532319110828536e-21  0.5                  0                    0.5                  0                    5.042095480878085e-18    9                             0                           3                     0.99975137010459203  0.019930937868192382  0.0099850766276591996        0                                9.1161736908202651e-14       
                       5.0391661708973965e-18                          46                                          1560.189524622391                   -1.7099459255838193e-08                -1.041344217074662e-22             -8.9434687732276504e-22         2.5742666071825975e-23             0.097157121069415917                    0.097157121069415917                      0.097157121069415917           -1.952896950780032e-21  0.5                  0                    0.5                  0                    5.0419876720594271e-18    10                            1                           3                     0.99975143547373613  0.019927519905918692  0.0099836050278877524        6.0870714907214609e-15              9.7248808398924109e-14       
                       5.0387506076760831e-18                          52                                          1558.1965570786595                  -1.7035490634592082e-08                -4.1556322131308126e-22             -8.9344711750388196e-22         4.0121366550379541e-23             0.12119818278826126                    0.12119818278826126                      0.12119818278826126           -1.9515576597368542e-21  0.5                  0                    0.5                  0                    5.0415554910867735e-18    11                            2                           3                     0.99975168555573701  0.019913853670784225  0.0099777193749024315        2.4348285962885844e-14              1.2159709436180997e-13       
                       2.4635835202228267e-17                          53                                          1569.061488722675                   -1.6992743923322842e-08                 1.9597084594552185e-17             -8.9344711750388196e-22         4.0121366550379541e-23             0.12119818278826126                    0.12119818278826126                      0.12119818278826126            1.9595133036892448e-17  100.00000000000001  -100.00000000000001   0                    0                    5.0415554910867735e-18    12                            0                           4                     0.99975168555573701  0.019913853670784225  0.0099777193749024315        0                                1.2159709436180997e-13       
                       2.4635732362080098e-17                          59                                          1567.9774971185786                  -1.6978314508116042e-08                -1.0284014816992446e-22             -8.9330962590618989e-22         4.4185414539520335e-23             0.12716339238531324                    0.12716339238531324                      0.12716339238531324            1.9595133785514159e-17  100.00000000000001  -100.00000000000001   0                    0                    5.0414477007773084e-18    13                            1                           4                     0.99975172375072219  0.019911942427399111  0.0099754101288840671        6.0545747048661934e-15              1.2765166906667615e-13       
                       2.4635321873802256e-17                          65                                          1563.6324166643562                  -1.6920742675560054e-08                -4.1048827784285582e-22             -8.9279987108201551e-22         6.2364304352439636e-23             0.15095367056962175                    0.15095367056962175                      0.15095367056962175            1.9595136560497108e-17  100.00000000000001  -100.00000000000001   0                    0                    5.0410157488718781e-18    14                            2                           4                     0.99975186533148497  0.019904302794036637  0.0099661763852945846        2.4218298819464774e-14              1.5186996788614094e-13       
                       5.0401853133051488e-18                          66                                          1552.1201462452059                  -1.696288172223816e-08                -1.9595136560497108e-17             -8.9279987108201551e-22         6.2364304352439636e-23             0.15095367056962175                    0.15095367056962175                      0.15095367056962175            0                    0                    0                    0                    0                    5.0410157488718781e-18    15                            0                           5                     0.99975186533148497  0.019904302794036637  0.0099661763852945846        0                                1.5186996788614094e-13       
                       5.0400815380628573e-18                          72                                          1551.6074602697543                  -1.6946940897777358e-08                -1.03775242291082e-22             -8.9260434524427104e-22         6.7437657012132518e-23             0.15694158731432487                    0.15694158731432487                      0.15694158731432487            0                    0                    0                    0                    0                    5.0409067047510895e-18    16                            1                           5                     0.99975191966059873  0.019900657534342135  0.0099651290101589341        6.1206601969453321e-15              1.5799062808308624e-13       
                       5.0396674112476469e-18                          78                                          1549.5455279316423                  -1.6883344164334943e-08                -4.1412681521098764e-22             -8.9186291135499531e-22         8.9666170497456206e-23             0.18081786639216316                    0.18081786639216316                      0.18081786639216316            0                    0                    0                    0                    0                    5.0404696079885041e-18    17                            2                           5                     0.99975212565014449  0.0198860807619557   0.0099609394699879273        2.4482640787781328e-14              1.8247326887086757e-13       
                       4.9422256155140637e-18                          79                                          1735.0307805535879                  -2.500553771282556e-08                -9.7441795733582951e-20             -8.9186291135499531e-22         8.9666170497456206e-23             0.18081786639216316                    0.18081786639216316                      0.18081786639216316           -9.7441795733582951e-20  25.000000000000004   0                    25.000000000000004   0                    5.0404696079885041e-18    18                            0                           6                     0.99975212565014449  0.0198860807619557   0.0099609394699879273        0                                1.8247326887086757e-13       
                       4.9420887414032548e-18                          85                                          1734.6904415716579                  -2.4990421727277867e-08                -1.3687411080877969e-22             -8.9170539994881806e-22         9.5058993326112517e-23             0.18614103728511677                    0.18614103728511677                      0.18614103728511677           -9.7473026702853783e-20  25.000000000000004   0                    25.000000000000004   0                    5.0403584145127314e-18    19                            1                           6                     0.99975216934792832  0.019892454429153831  0.0099407394409359688        5.475407183824647e-15              1.8794867605469223e-13       
                       4.9415420713751499e-18                          91                                          1733.3181491403927                  -2.4930109525927158e-08                -5.466700281047361e-22             -8.9112855134186615e-22         1.1816040538370375e-22             0.20737216448061374                    0.20737216448061374                      0.20737216448061374           -9.7598243068636512e-20  25.000000000000004   0                    25.000000000000004   0                    5.039913282589745e-18    20                            2                           6                     0.99975232933176394  0.019918008789517654  0.0098599708445808731        2.1901628735298588e-14              2.0985030478999081e-13       
# Table End
