# ODT 1.0
# Table Start
# Title: mmArchive Data Table, Wed Jun 16 18:45:46 EDT 2010
# Columns: {Oxs_RungeKuttaEvolve:evolve:Total energy} {Oxs_RungeKuttaEvolve:evolve:Energy calc count} {Oxs_RungeKuttaEvolve:evolve:Max dm/dt} Oxs_RungeKuttaEvolve:evolve:dE/dt {Oxs_RungeKuttaEvolve:evolve:Delta E} Oxs_CubicAnisotropy::Energy Oxs_UniformExchange::Energy {Oxs_UniformExchange::Max Spin Ang} {Oxs_UniformExchange::Stage Max Spin Ang} {Oxs_UniformExchange::Run Max Spin Ang} Oxs_TransformZeeman::Energy Oxs_Demag::Energy    Oxs_TimeDriver::Iteration {Oxs_TimeDriver::Stage iteration} Oxs_TimeDriver::Stage Oxs_TimeDriver::mx   Oxs_TimeDriver::my   Oxs_TimeDriver::mz   {Oxs_TimeDriver::Last time step} {Oxs_TimeDriver::Simulation time}
# Units:                       J                                            {}                                        deg/ns                                 J/s                                  J                                J                           J                              deg                                    deg                                      deg                                J                      J                       {}                            {}                          {}                   {}                   {}                   {}                          s                                 s                
                       3.0838174328608158e-17                          1                                           19160.801051097784                  -5.6022922523202301e-06                 0                               -3.0880380723737155e-19         3.0725350698380748e-17             180                                    180                                      180                              -9.1835496157991212e-41      4.2162743746477968e-19    0                             0                           0                     1.5044654864308244e-21 -5.4378270593885218e-23  0                          0                                0                         
                       3.0835397178853865e-17                          7                                           19158.280259633779                  -5.6003213472324157e-06                -2.7771497542919065e-21             -3.0880315640919038e-19         3.0722612093917746e-17             179.99998723314414                     180                                      180                              -5.1591488579085656e-25      4.2158875726019413e-19    1                             1                           0                    -4.2283310476109096e-10  2.6322187918959661e-07  3.3964732490679144e-09        4.9580390583178221e-16              4.9580390583178221e-16       
                       3.0824298345399994e-17                          13                                          19148.195943835879                  -5.5924461443784295e-06                -1.1098833453872149e-20             -3.0880057376291546e-19         3.0711667310591433e-17             179.99993622093305                     180                                      180                              -2.5798098919151021e-24      4.214341883813651e-19    2                             2                           0                    -2.1144639199083474e-09  1.316229503915862e-06  1.698466667442942e-08        1.9832156233271289e-15              2.4790195291589109e-15       
                       3.0824298345399994e-17                          14                                          19148.195943835879                  -5.5924461443784295e-06                 0                               -3.0880057376291546e-19         3.0711667310591433e-17             179.99993622093305                     179.99993622093305                       180                              -2.5798098919151021e-24      4.214341883813651e-19    3                             0                           1                    -2.1144639199083474e-09  1.316229503915862e-06  1.698466667442942e-08        0                                2.4790195291589109e-15       
                       3.078005879405557e-17                          20                                          19107.840537513795                  -5.5610796383641099e-06                -4.4239551344419527e-20             -3.087905717942349e-19         3.0668041826501801e-17             179.99973312512847                     179.99993622093305                       180                              -1.0839159097691681e-23      4.2081837850710412e-19    4                             1                           1                    -8.8856605661537036e-09  5.5301826436438948e-06  7.1373586207047577e-08        7.9328624933085154e-15              1.0411882022467426e-14       
                       3.0605563501284782e-17                          26                                          18946.515811611986                  -5.4377386343294736e-06                -1.744952927707911e-19             -3.08755689977802e-19         3.0495966339392937e-17             179.99951945802604                     179.99993622093305                       180                              -4.3936975648025197e-23      4.1839678884529311e-19    5                             2                           1                    -3.6039082797987783e-08  2.2416815553160361e-05  2.8946492438070311e-07        3.1731449973234062e-14              4.2143331995701488e-14       
                       3.0605563501284782e-17                          27                                          18946.515811611986                  -5.4377386343294736e-06                 0                               -3.08755689977802e-19         3.0495966339392937e-17             179.99951945802604                     179.99951945802604                       180                              -4.3936975648025197e-23      4.1839678884529311e-19    6                             0                           2                    -3.6039082797987783e-08  2.2416815553160361e-05  2.8946492438070311e-07        0                                4.2143331995701488e-14       
                       2.9945157566263874e-17                          33                                          18309.406050381018                  -4.9768753464464642e-06                -6.6040593502091e-19             -3.0868964392068461e-19         2.9844512674456364e-17             179.99624256805478                     179.99951945802604                       180                              -1.7730197419354558e-22      4.0951183770238821e-19    7                             1                           2                    -1.4544060831580252e-07  9.046008745515935e-05  1.1675966034531685e-06        1.2692579989293625e-13              1.6906913188863774e-13       
                       2.7943181461583469e-17                          39                                          15950.7267582043                    -3.6532073212776915e-06                -2.0019761046804034e-18             -3.0905656539079083e-19         2.7860040927349927e-17             179.9924850847145                      179.99951945802604                       180                              -6.836759060993e-22       3.9288077553043188e-19    8                             2                           2                    -5.6014826232255638e-07  0.00034881479416986835  4.3439578306468477e-06        4.6877534408972767e-13              6.3784447597836543e-13       
                       2.7943181461583469e-17                          40                                          15950.7267582043                    -3.6532073212776915e-06                 0                               -3.0905656539079083e-19         2.7860040927349927e-17             179.9924850847145                      179.9924850847145                        180                              -6.836759060993e-22       3.9288077553043188e-19    9                             0                           3                    -5.6014826232255638e-07  0.00034881479416986835  4.3439578306468477e-06        0                                6.3784447597836543e-13       
                       2.6204978779333044e-17                          46                                          13257.073692267715                  -2.6259340998548153e-06                -1.7382026822504241e-18             -3.0977121621202711e-19         2.6106304550160808e-17             179.980550843255                       179.9924850847145                        180                              -1.3186114124760271e-21      4.0976405679673908e-19    10                            1                           3                    -1.175167034273122e-06  0.00067277115022609509  7.5698876375381676e-06        5.606389928514021e-13              1.1984834688297675e-12       
                       2.4840072368081835e-17                          52                                          10666.664435518944                  -1.9239127379322193e-06                -1.3649064112512094e-18             -3.1037062354340955e-19         2.4697040546208255e-17             179.96310793415697                     179.9924850847145                        180                              -2.042709135068982e-21      4.5544515455205775e-19    11                            2                           3                    -2.2943251660771984e-06  0.0010422395799214168  1.007189090435183e-05        6.0709730958433917e-13              1.8055807784141067e-12       
                       2.4840072368081835e-17                          53                                          10666.664435518944                  -1.9239127379322193e-06                 0                               -3.1037062354340955e-19         2.4697040546208255e-17             179.96310793415697                     179.96310793415697                       180                              -2.042709135068982e-21      4.5544515455205775e-19    12                            0                           4                    -2.2943251660771984e-06  0.0010422395799214168  1.007189090435183e-05        0                                1.8055807784141067e-12       
                       2.3733903709100787e-17                          59                                          8939.6067097386713                  -1.4385648651371264e-06                -1.1061686589810456e-18             -3.1088678737314583e-19         2.3532739048538916e-17             179.92962451146187                     179.96310793415697                       180                              -2.8800480289309785e-21      5.1493149596395089e-19    13                            1                           4                    -4.4254715002514118e-06  0.0014695206493373736  1.1811832357068806e-05        6.6529845267323197e-13              2.4708792310873389e-12       
                       2.2808389593300863e-17                          65                                          8956.7422998984166                  -1.1009143721174525e-06                -9.2551411579992399e-19             -3.1144339336218066e-19         2.2542682343704415e-17             179.87444181194678                     179.96310793415697                       180                              -3.860929935068723e-21      5.8101157289369691e-19    14                            2                           4                    -8.0658715325021489e-06  0.001970099702184609  1.295968703467463e-05        7.3643428545286942e-13              3.2073135165402082e-12       
                       2.2808389593300863e-17                          66                                          8956.7422998984166                  -1.1009143721174525e-06                 0                               -3.1144339336218066e-19         2.2542682343704415e-17             179.87444181194678                     179.87444181194678                       180                              -3.860929935068723e-21      5.8101157289369691e-19    15                            0                           5                    -8.0658715325021489e-06  0.001970099702184609  1.295968703467463e-05        0                                3.2073135165402082e-12       
                       2.2009285123099099e-17                          72                                          8781.0441085692528                  -8.6357872896723582e-07                -7.9910447020176631e-19             -3.121166911072806e-19         2.1673964909047019e-17             179.78737345305476                     179.87444181194678                       180                              -5.0229138530197742e-21      6.5245981901237781e-19    16                            1                           5                    -1.3628811545761437e-05  0.0025631872186718829  1.370971555269811e-05        8.2101463247017047e-13              4.0283281490103784e-12       
                       2.1297224542491181e-17                          78                                          8168.8562119105645                  -6.9291779974517729e-07                -7.1206058060791713e-19             -3.1286152494018005e-19         2.0886747695177194e-17             179.72218629873751                     179.87444181194678                       180                              -6.4170839769321597e-21      7.2975545623109886e-19    17                            2                           5                    -2.1540779886221463e-05  0.0032749367047692568  1.4153022155564086e-05        9.2224213780207252e-13              4.9505702868124511e-12       
                       2.1297224542491181e-17                          79                                          8168.8562119105645                  -6.9291779974517729e-07                 0                               -3.1286152494018005e-19         2.0886747695177194e-17             179.72218629873751                     179.72218629873751                       180                              -6.4170839769321597e-21      7.2975545623109886e-19    18                            0                           6                    -2.1540779886221463e-05  0.0032749367047692568  1.4153022155564086e-05        0                                4.9505702868124511e-12       
                       2.0641566421089918e-17                          85                                          7375.5092767157357                  -5.6681828142582829e-07                -6.5565812140126126e-19             -3.1356789321958269e-19         2.0149380095681733e-17             179.80632195085059                     179.80632195085059                       180                              -8.1211185629761199e-21      8.1387533719074455e-19    19                            1                           6                    -3.2443110038442003e-05  0.0041451494830416543  1.4204760014334114e-05        1.0483876229639844e-12              5.9989579097764353e-12       
                       2.0029831156228959e-17                          91                                          8374.1448784366548                  -4.7474782761686322e-07                -6.1173526486096138e-19             -3.1414253597192269e-19         1.9450139876523864e-17             179.64513944955306                     179.80632195085059                       180                              -1.0203444776621194e-20      9.040372604536389e-19    20                            2                           6                    -4.6949794321700687e-05  0.0052090231426193722  1.3571362311830842e-05        1.1823028840439323e-12              7.1812607938203676e-12       
# Table End
