# ODT 1.0
# Table Start
# Title: mmArchive Data Table, Wed Jun 16 18:45:34 EDT 2010
# Columns: {Oxs_RungeKuttaEvolve:evolver:Total energy} {Oxs_RungeKuttaEvolve:evolver:Energy calc count} {Oxs_RungeKuttaEvolve:evolver:Max dm/dt} Oxs_RungeKuttaEvolve:evolver:dE/dt {Oxs_RungeKuttaEvolve:evolver:Delta E} Oxs_UniformExchange:NiFe:Energy {Oxs_UniformExchange:NiFe:Max Spin Ang} {Oxs_UniformExchange:NiFe:Stage Max Spin Ang} {Oxs_UniformExchange:NiFe:Run Max Spin Ang} Oxs_UZeeman::Energy  Oxs_UZeeman::B       Oxs_UZeeman::Bx      Oxs_UZeeman::By      Oxs_UZeeman::Bz      Oxs_Demag::Energy    Oxs_TimeDriver::Iteration {Oxs_TimeDriver::Stage iteration} Oxs_TimeDriver::Stage Oxs_TimeDriver::mx   Oxs_TimeDriver::my   Oxs_TimeDriver::mz   {Oxs_TimeDriver::Last time step} {Oxs_TimeDriver::Simulation time}
# Units:                        J                                             {}                                         deg/ns                                 J/s                                   J                                   J                                  deg                                        deg                                          deg                              J                 mT                   mT                   mT                   mT                     J                       {}                            {}                          {}                   {}                   {}                   {}                          s                                 s                
                       3.9207800838442448e-17                            1                                            2180.5957753876683                   -1.5452827616707562e-07                  0                                  0                                   0                                          0                                            0                                0                    0                    0                    0                    0                    3.9207800838442448e-17    0                             0                           0                     0                    1                    0                          0                                0                         
                       3.9207127928825441e-17                            7                                            2180.1391626877567                   -1.5438624422739325e-07                 -6.7290961700577508e-22                6.1980356576493876e-25                 0.0060943820201669382                        0.0060943820201669382                          0.0060943820201669382              0                    0                    0                    0                    0                    3.9207127309021871e-17    1                             1                           0                     1.2942134934652136e-07  0.99999999952663166  2.5868060050968084e-07        4.3566075414922243e-15              4.3566075414922243e-15       
                       3.9204442469569662e-17                            13                                           2178.3007620040275                   -1.5381942625712616e-07                 -2.6854592557765471e-21                1.5451484741385122e-23                 0.030419182904047742                        0.030419182904047742                          0.030419182904047742              0                    0                    0                    0                    0                    3.9204427018084921e-17    2                             2                           0                     6.4835873191974556e-07  0.99999998818754909  1.2926660872981573e-06        1.7426430165968897e-14              2.1783037707461121e-14       
                       3.9204371821529112e-17                            14                                           2999.3807409190722                   -9.271624812508911e-07                 -7.0648040549061135e-23                1.5451484741385122e-23                 0.030419182904047742                        0.030419182904047742                          0.030419182904047742             -7.0648040549062028e-23  100.00000000000001   100.00000000000001   0                    0                    3.9204427018084921e-17    3                             0                           1                     6.4835873191974556e-07  0.99999998818754909  1.2926660872981573e-06        0                                2.1783037707461121e-14       
                       3.9204301173488563e-17                            15                                           3895.9712743705895                   -3.234252145246986e-06                 -7.0648040549064144e-23                1.5451484741385122e-23                 0.030419182904047742                        0.030419182904047742                          0.030419182904047742             -1.4129608109812406e-22  200.00000000000003   200.00000000000003   0                    0                    3.9204427018084921e-17    4                             0                           2                     6.4835873191974556e-07  0.99999998818754909  1.2926660872981573e-06        0                                2.1783037707461121e-14       
                       3.9196414792490582e-17                            21                                           3895.5465669476607                   -3.2341929178991207e-06                 -7.8863809979818582e-21                1.9096878096837473e-23                 0.033816198375494058                        0.033816198375494058                          0.033816198375494058             -7.6384429056314774e-21  200.00000000000003   200.00000000000003   0                    0                    3.9204034138518121e-17    5                             1                           2                     3.5050166414009293e-05  0.99999998233022092  7.0078694632119554e-05        2.4384163359969239e-15              2.4221454043458044e-14       
                       3.9164870702405253e-17                            27                                           3893.834530832994                    -3.2339588249818988e-06                 -3.1544090085329567e-20                3.751439134081668e-23                 0.047389350530665938                        0.047389350530665938                          0.047389350530665938             -3.7656350295006199e-20  200.00000000000003   200.00000000000003   0                    0                    3.9202489538308921e-17    6                             2                           2                     0.00017279193687644393  0.9999998968080086   0.00034515832779947125        9.7536653439876957e-15              3.3975119387445738e-14       
                       3.9146042527257754e-17                            28                                           4792.2381583146971                   -7.0748450677126492e-06                 -1.8828175147503097e-20                3.751439134081668e-23                 0.047389350530665938                        0.047389350530665938                          0.047389350530665938             -5.6484525442509296e-20  300                  300                  0                    0                    3.9202489538308921e-17    7                             0                           3                     0.00017279193687644393  0.9999998968080086   0.00034515832779947125        0                                3.3975119387445738e-14       
                       3.9132017576552037e-17                            34                                           4791.8657712401464                   -7.0748189814974063e-06                 -1.4024950705715636e-20                4.2006371984405358e-23                 0.050145114293339711                        0.050145114293339711                          0.050145114293339711             -7.0205969123762137e-20  300                  300                  0                    0                    3.9202181539303813e-17    8                             1                           3                     0.00021476723563039932  0.9999998527998446   0.00042895608793764401        1.9823722624296489e-15              3.5957491649875392e-14       
                       3.9075918279839554e-17                            40                                           4790.3673771371668                   -7.0747183408483385e-06                 -5.6099296712481127e-20                6.2495590539115903e-23                 0.061158831904307341                        0.061158831904307341                          0.061158831904307341             -1.2513528844103911e-19  300                  300                  0                    0                    3.9200991072690053e-17    9                             2                           3                     0.00038280163800485798  0.99999958698770308  0.00076408324657435548        7.9294890497185955e-15              4.3886980699593983e-14       
                       3.9034206517025876e-17                            41                                           5689.7516395296279                   -1.2449411854775555e-05                 -4.1711762813679704e-20                6.2495590539115903e-23                 0.061158831904307341                        0.061158831904307341                          0.061158831904307341             -1.6684705125471882e-19  400.00000000000006   400.00000000000006   0                    0                    3.9200991072690053e-17    10                            0                           4                     0.00038280163800485798  0.99999958698770308  0.00076408324657435548        0                                4.3886980699593983e-14       
                       3.9013420120534962e-17                            47                                           5689.4196816290023                   -1.2449416324769859e-05                 -2.0786396490909435e-20                6.732306261379635e-23                 0.063476040766529365                        0.063476040766529365                          0.063476040766529365             -1.8740282107879988e-19  400.00000000000006   400.00000000000006   0                    0                    3.9200755618551149e-17    11                            1                           4                     0.00042996328874986338  0.99999948783441284  0.00085813701528217204        1.6696686607546484e-15              4.5556649360348633e-14       
                       3.8930274449221259e-17                            53                                           5688.0854695550734                   -1.2449438483223935e-05                 -8.3145671313707613e-20                8.8413386881658356e-23                 0.072738622765867053                        0.072738622765867053                          0.072738622765867053             -2.6968077430896402e-19  400.00000000000006   400.00000000000006   0                    0                    3.9199866810143339e-17    12                            2                           4                     0.00061873579045928833  0.99999897914420799  0.001234291626593787        6.6786746430185937e-15              5.2235324003367227e-14       
                       3.8862854255644016e-17                            54                                           6588.0614189726721                   -1.93579457655572e-05                 -6.7420193577241006e-20                8.8413386881658356e-23                 0.072738622765867053                        0.072738622765867053                          0.072738622765867053             -3.3710096788620499e-19  500.00000000000006   500.00000000000006   0                    0                    3.9199866810143339e-17    13                            0                           5                     0.00061873579045928833  0.99999897914420799  0.001234291626593787        0                                5.2235324003367227e-14       
                       3.8834940028531637e-17                            60                                           6587.7612210233665                   -1.9357979084871752e-05                 -2.7914227112379709e-20                9.3340359095072794e-23                 0.074737218096810887                        0.074737218096810887                          0.074737218096810887             -3.6485111383055254e-19  500.00000000000006   500.00000000000006   0                    0                    3.9199697802003096e-17    14                            1                           5                     0.00066967011020895029  0.99999881212186326  0.0013357915573079834        1.44200234269847e-15              5.36773263460657e-14       
                       3.8723282629780763e-17                            66                                           6586.5555505245457                   -1.9358116909427262e-05                 -1.1165739875087243e-19                1.1437106473347596e-22                 0.082727212558991112                        0.082727212558991112                          0.082727212558991112             -4.7591561303042194e-19  500.00000000000006   500.00000000000006   0                    0                    3.919908387174645e-17    15                            2                           5                     0.00087352470349387316  0.9999980140429896   0.0017417348130714652        5.7680093707938802e-15              5.9445335716859578e-14       
                       3.8628099507174682e-17                            67                                           7486.9165467237444                   -2.7800441593717432e-05                 -9.5183122606084378e-20                1.1437106473347596e-22                 0.082727212558991112                        0.082727212558991112                          0.082727212558991112             -5.7109873563650627e-19  600                  600                  0                    0                    3.919908387174645e-17    16                            0                           6                     0.00087352470349387316  0.9999980140429896   0.0017417348130714652        0                                5.9445335716859578e-14       
                       3.8592824039381376e-17                            73                                           7486.6417779288031                   -2.7800502379820132e-05                 -3.5275467793304691e-20                1.192811350615844e-22                 0.084483964205986403                        0.084483964205986403                          0.084483964205986403             -6.0627334656736479e-19  600                  600                  0                    0                    3.9198978104813678e-17    17                            1                           6                     0.00092732606859345721  0.99999776946410934  0.0018488842773762425        1.2688801779361592e-15              6.0714215894795742e-14       
                       3.8451721388269696e-17                            79                                           7485.5387893341467                   -2.7800750061387201e-05                 -1.4110265111167916e-19                1.3994217759165049e-22                 0.091507788941758345                        0.091507788941758345                          0.091507788941758345             -7.4704301944542531e-19  600                  600                  0                    0                    3.9198624465537531e-17    18                            2                           6                     0.0011426404776241274  0.99999664659929122  0.0022774295334143132        5.0755207117446368e-15              6.578973660654037e-14       
                       3.8327214218362128e-17                            80                                           8386.164631681946                    -3.7776893588717966e-05                 -1.2450716990757087e-19                1.3994217759165049e-22                 0.091507788941758345                        0.091507788941758345                          0.091507788941758345             -8.7155018935299613e-19  700                  700                  0                    0                    3.9198624465537531e-17    19                            0                           7                     0.0011426404776241274  0.99999664659929122  0.0022774295334143132        0                                6.578973660654037e-14       
                       3.8284419816212193e-17                            86                                           8385.910579662499                    -3.7776980533793536e-05                 -4.2794402149932205e-20                1.4477622822807594e-22                 0.093074765029652284                        0.093074765029652284                          0.093074765029652284             -9.1430516805425811e-19  700                  700                  0                    0                    3.9198580208038223e-17    20                            1                           7                     0.0011986941276385761  0.99999631692269864  0.002389010868772027        1.1328182091858911e-15              6.6922554815726265e-14       
# Table End
