# ODT 1.0
# Table Start
# Title: mmArchive Data Table, Wed Jun 11 15:41:24 EDT 2014
# Columns: {Oxs_CGEvolve:evolve:Max mxHxm} {Oxs_CGEvolve:evolve:Total energy} {Oxs_CGEvolve:evolve:Delta E} {Oxs_CGEvolve:evolve:Bracket count} {Oxs_CGEvolve:evolve:Line min count} {Oxs_CGEvolve:evolve:Conjugate cycle count} {Oxs_CGEvolve:evolve:Cycle count} {Oxs_CGEvolve:evolve:Cycle sub count} {Oxs_CGEvolve:evolve:Energy calc count} Oxs_UniaxialAnisotropy::Energy Oxs_UniformExchange::Energy {Oxs_UniformExchange::Max Spin Ang} {Oxs_UniformExchange::Stage Max Spin Ang} {Oxs_UniformExchange::Run Max Spin Ang} Oxs_StageZeeman::Energy {Oxs_StageZeeman::B max} {Oxs_StageZeeman::Bx max} {Oxs_StageZeeman::By max} {Oxs_StageZeeman::Bz max} Oxs_Demag::Energy    Oxs_MinDriver::Iteration {Oxs_MinDriver::Stage iteration} Oxs_MinDriver::Stage Oxs_MinDriver::mx    Oxs_MinDriver::my    Oxs_MinDriver::mz   
# Units:                 A/m                               J                                J                               {}                                   {}                                      {}                                     {}                                  {}                                     {}                                  J                             J                              deg                                    deg                                      deg                              J                       mT                       mT                        mT                        mT                     J                       {}                           {}                         {}                 {}                   {}                   {}           
                 292898.31015753985                1.5283490895296572e-17             1.5283490895296572e-17              0                                    0                                       1                                      1                                   0                                      1                                   1.9992003998001003e-18          0                               0                                      0                                        0                              -1.5996001499375276e-19      100                      0                         100                       0                       1.3444250510490225e-17    0                            0                          0                    0.99975009371095458  0.019995001874219091  0.0099975009371095457
                 292372.99023281562                1.5279058285378241e-17            -4.4326099183308745e-21              1                                    0                                       1                                      1                                   0                                      2                                   1.9991959117311811e-18          2.4954803769242648e-24             0.024810162699214402                    0.024810162699214402                      0.024810162699214402            -1.6185134217987615e-19      100                      0                         100                       0                       1.3441711220346559e-17    1                            1                          0                    0.99974912248205983  0.020050619803945392  0.0099817441698404324
                 221947.67679427433                1.4531447753550166e-17            -7.4761053182807489e-19              2                                    0                                       1                                      1                                   0                                      3                                   1.9966952284077287e-18          1.0079275742790905e-19             4.9780137674742191                     4.9780137674742191                       4.9780137674742191             -5.409017888424223e-19      100                      0                         100                       0                       1.2974861556556951e-17    2                            2                          0                    0.9988912764416007   0.031190899797321429  0.0068090709332137055
                 223408.70630796163                1.3911525110943901e-17            -6.1992264260626453e-19              3                                    0                                       2                                      2                                   0                                      4                                   1.9897106026353538e-18          1.9684952508942872e-19             9.3445444278403773                     9.3445444278403773                       9.3445444278403773             -9.9048440097394631e-19      100                      0                         100                       0                       1.2715449384193066e-17    3                            3                          0                    0.99686658621121516  0.045088163676111091  0.0041697477741712936
                 228514.8776231136                 1.3881039948279787e-17            -3.0485162664115439e-20              4                                    0                                       2                                      2                                   0                                      5                                   1.9891950438458262e-18          2.0545516235934599e-19             9.6361912126662794                     9.6361912126662794                       9.6361912126662794             -1.0153109776385745e-18      100                      0                         100                       0                       1.2701700719713188e-17    4                            4                          0                    0.99671717618628031  0.045855298795236879  0.0040225475381657988
                 164855.47759753815                1.4737357383952359e-17             8.5631743567257355e-19              4                                    0                                       3                                      3                                   0                                      6                                   1.9891950438458262e-18          2.0545516235934599e-19             9.6361912126662794                     9.6361912126662794                       9.6361912126662794             -1.5899354196600085e-19      100                      0                         100                       0                       1.2701700719713188e-17    5                            0                          1                    0.99671717618628031  0.045855298795236879  0.0040225475381657988
                 509887.3600528072                 1.4218241754612069e-17            -5.1911562934029053e-19              5                                    0                                       3                                      3                                   0                                      7                                   1.9814278306321321e-18          4.9570516494047925e-19             13.018877248559955                     13.018877248559955                       13.018877248559955             -7.858021829225975e-19      100                      0                         100                       0                       1.2526910941962055e-17    6                            1                          1                    0.99458196837659851  0.064306394641325759  0.0020798472167077968
                 552342.81214073044                1.4214658611464337e-17            -3.5831431477325679e-21              6                                    0                                       3                                      3                                   0                                      8                                   1.9805030625779198e-18          5.5103333466850002e-19             13.806319527291206                     13.806319527291206                       13.806319527291206             -8.3370892652884494e-19      100                      0                         100                       0                       1.2516831140746761e-17    7                            2                          1                    0.99432185534680517  0.065712502392833216  0.001930160999445179
                 454255.35039658082                1.3926396024879627e-17            -2.8826258658470894e-19              7                                    0                                       4                                      4                                   0                                      9                                   1.977060107523361e-18          4.1313379057445744e-19             13.262084008086603                     13.806319527291206                       13.806319527291206             -9.7712919877190722e-19      100                      0                         100                       0                       1.2513331325553717e-17    8                            3                          1                    0.99352796128880705  0.071027776323957861  0.0016653939893490871
                 234109.3287809804                 1.3853844822102366e-17            -7.255120277726229e-20              7                                    1                                       4                                      4                                   0                                      10                                  1.9782149613526404e-18          2.9954535238036334e-19             8.720316726229667                      13.806319527291206                       13.806319527291206             -9.3269843916084682e-19      100                      0                         100                       0                       1.2508782947530209e-17    9                            4                          1                    0.99386012481357566  0.069388562110411209  0.001747913972405331
                 234109.3287809804                 1.4663350084632907e-17             8.0950526253054072e-19              7                                    1                                       5                                      5                                   0                                      11                                  1.9782149613526404e-18          2.9954535238036334e-19             8.720316726229667                      8.720316726229667                        13.806319527291206             -1.2319317663030603e-19      100                      0                         100                       0                       1.2508782947530209e-17    10                           0                          2                    0.99386012481357566  0.069388562110411209  0.001747913972405331
                 165427.11623487866                1.4419158382729704e-17            -2.4419170190320377e-19              8                                    1                                       5                                      5                                   0                                      12                                  1.9769660498106744e-18          2.7402815496883218e-19             7.3401333825498831                     8.720316726229667                        13.806319527291206             -3.0313944658993579e-19      100                      0                         100                       0                       1.2471303624540132e-17    11                           1                          2                    0.99354926142890632  0.073933761193769487  0.0015441111234992394
                 667059.1940989932                 1.4376773493681075e-17            -4.2384889048626674e-20              9                                    1                                       5                                      5                                   0                                      13                                  1.9741820568176445e-18          5.1351540304593208e-19             14.296962168584448                     14.296962168584448                       14.296962168584448             -5.4529105804267447e-19      100                      0                         100                       0                       1.2434367091860174e-17    12                           2                          2                    0.99277253859255099  0.080030330422045104  0.0012686161623506659
                 480904.39094202686                1.4354297964797235e-17            -2.2475528883841644e-20              9                                    2                                       5                                      5                                   0                                      14                                  1.9753616301985667e-18          3.8818248537854729e-19             11.733469678686269                     14.296962168584448                       14.296962168584448             -4.5549109797757817e-19      100                      0                         100                       0                       1.2446244947197699e-17    13                           3                          2                    0.99310852050392673  0.077772374701248204  0.0013709649017351992
                 350961.01922920521                1.3476225720308735e-17            -8.780722444884991e-19              10                                   2                                       5                                      6                                   1                                      15                                  1.9493109334745388e-18          7.7011845814126714e-19             12.709325561959377                     14.296962168584448                       14.296962168584448             -1.5572889142384998e-18      100                      0                         100                       0                       1.2314085242931429e-17    14                           4                          2                    0.98646311582074619  0.10678675700711024  0.00013188064120605255
                 366936.85820883303                1.4866386148636368e-17             1.3901604283276333e-18              10                                   2                                       6                                      7                                   0                                      16                                  1.9493109334745388e-18          7.7011845814126714e-19             12.709325561959377                     12.709325561959377                       14.296962168584448             -1.6712848591086634e-19      100                      0                         100                       0                       1.2314085242931429e-17    15                           0                          3                    0.98646311582074619  0.10678675700711024  0.00013188064120605255
                 1228461.3988094334                1.4531919100021705e-17            -3.3446704861466205e-19              11                                   2                                       6                                      7                                   0                                      17                                  1.9486626970197984e-18          8.579696002215733e-19             19.02687300495127                      19.02687300495127                        19.02687300495127              -5.013860338848069e-19      100                      0                         100                       0                       1.2226672836665142e-17    16                           1                          3                    0.98616016507693693  0.11287350466565377  0.00014967211565268922
                 671239.11110612634                1.4360080164884476e-17            -1.7183893513723095e-19              11                                   3                                       6                                      7                                   0                                      18                                  1.9495282515243158e-18          5.3618207309607913e-19             13.06605651408487                      19.02687300495127                        19.02687300495127              -3.7837008285019332e-19      100                      0                         100                       0                       1.2252739923114274e-17    17                           2                          3                    0.98648941209260255  0.1106551320943647   0.00014319622138966412
                 783672.92368721939                1.3983223927038996e-17            -3.7685623784547988e-19              12                                   3                                       6                                      8                                   1                                      19                                  1.9441206187800287e-18          7.4187764149827811e-19             11.12344653422924                      19.02687300495127                        19.02687300495127              -8.3893416138082977e-19      100                      0                         100                       0                       1.2136159828141519e-17    18                           3                          3                    0.98500341506186884  0.11946709237155602  0.0001641611894753329
                 459799.19339112221                1.3945634205824595e-17            -3.7589721214402204e-20              12                                   4                                       6                                      8                                   1                                      20                                  1.945917315182251e-18          5.7154481594669448e-19             8.7770370974371126                     19.02687300495127                        19.02687300495127              -7.3285764517546947e-19      100                      0                         100                       0                       1.2161029719871118e-17    19                           4                          3                    0.98550964661184492  0.11745359233681771  0.00015936785059449197
# Table End
