# ODT 1.0
# Table Start
# Title: mmArchive Data Table, Wed Aug 17 23:55:48 EDT 2011
# Columns: {Oxs_CGEvolve:evolve:Max mxHxm} {Oxs_CGEvolve:evolve:Total energy} {Oxs_CGEvolve:evolve:Delta E} {Oxs_CGEvolve:evolve:Bracket count} {Oxs_CGEvolve:evolve:Line min count} {Oxs_CGEvolve:evolve:Conjugate cycle count} {Oxs_CGEvolve:evolve:Cycle count} {Oxs_CGEvolve:evolve:Cycle sub count} {Oxs_CGEvolve:evolve:Energy calc count} Oxs_UniaxialAnisotropy::Energy Oxs_UniformExchange::Energy {Oxs_UniformExchange::Max Spin Ang} {Oxs_UniformExchange::Stage Max Spin Ang} {Oxs_UniformExchange::Run Max Spin Ang} Oxs_StageZeeman::Energy {Oxs_StageZeeman::B max} {Oxs_StageZeeman::Bx max} {Oxs_StageZeeman::By max} {Oxs_StageZeeman::Bz max} Oxs_Demag::Energy    Oxs_MinDriver::Iteration {Oxs_MinDriver::Stage iteration} Oxs_MinDriver::Stage Oxs_MinDriver::mx    Oxs_MinDriver::my    Oxs_MinDriver::mz   
# Units:                 A/m                               J                                J                               {}                                   {}                                      {}                                     {}                                  {}                                     {}                                  J                             J                              deg                                    deg                                      deg                              J                       mT                       mT                        mT                        mT                     J                       {}                           {}                         {}                 {}                   {}                   {}           
                 292898.31015756505                1.5283490895216903e-17             1.5283490895216903e-17              0                                    0                                       1                                      1                                   1                                      1                                   1.9992003998001003e-18          0                               0                                      0                                        0                              -1.5996001499375028e-19      100                      0                         100                       0                       1.3444250510410556e-17    0                            0                          0                    0.99975009371100365  0.019995001874219199  0.0099975009371095994
                 292372.99023284315                1.527905828529855e-17            -4.4326099183532695e-21              1                                    0                                       1                                      1                                   1                                      2                                   1.9991959117311811e-18          2.4954803769263521e-24             0.024810162717952354                    0.024810162717952354                      0.024810162717952354            -1.6185134217987581e-19      100                      0                         100                       0                       1.3441711220266869e-17    1                            1                          0                    0.99974912248206027  0.020050619803945374  0.0099817441698404358
                 288688.37560451112                1.5248224357161538e-17            -3.0833928137011993e-20              2                                    0                                       1                                      1                                   1                                      3                                   1.9991622712113732e-18          1.5970806900257871e-22             0.19847914163794372                    0.19847914163794372                      0.19847914163794372            -1.7509015925626624e-19      100                      0                         100                       0                       1.3423992537137428e-17    2                            2                          0                    0.99974140385816013  0.0204399251392367   0.0098714377182536339
                 221611.76367305376                1.5263782066744171e-17             1.5557709582633287e-20              2                                    0                                       2                                      2                                   2                                      4                                   1.9991622712113732e-18          1.5970806900257871e-22             0.19847914163794372                    0.19847914163794372                      0.19847914163794372            -1.5953244967362963e-19      100                      0                         100                       0                       1.3423992537137428e-17    3                            0                          1                    0.99974140385816013  0.0204399251392367   0.0098714377182536339
                 220892.02215208719                1.5258180181282669e-17            -5.6018854615026244e-21              3                                    0                                       2                                      2                                   0                                      5                                   1.9991560960856511e-18          2.0392885849235389e-22             0.22978846504523603                    0.22978846504523603                      0.22978846504523603            -1.6197243726807242e-19      100                      0                         100                       0                       1.3420792593606599e-17    4                            1                          1                    0.99973992066103157  0.020513442246942022  0.0098508887299554836
                 215849.64440378596                1.5219339104457465e-17            -3.884107682520388e-20              4                                    0                                       2                                      2                                   0                                      6                                   1.9991091324243806e-18          7.7272212667316284e-22             0.44894920440880753                    0.44894920440880753                      0.44894920440880753            -1.7905187242287204e-19      100                      0                         100                       0                       1.3398509122329283e-17    5                            2                          1                    0.99972800095863468  0.021028028494641776  0.0097070309352550836
                 215849.64440378596                1.52394233849616e-17             2.0084280504134914e-20              4                                    0                                       3                                      3                                   1                                      7                                   1.9991091324243806e-18          7.7272212667316284e-22             0.44894920440880753                    0.44894920440880753                      0.44894920440880753            -1.5896759191874007e-19      100                      0                         100                       0                       1.3398509122329283e-17    6                            0                          2                    0.99972800095863468  0.021028028494641776  0.0097070309352550836
                 215145.54791464601                1.5233840504224913e-17            -5.5828807366865158e-21              5                                    0                                       3                                      3                                   0                                      8                                   1.9991025312945947e-18          8.7127983776009068e-22             0.47922176281785078                    0.47922176281785078                      0.47922176281785078            -1.6147431554529457e-19      100                      0                         100                       0                       1.3395341008637854e-17    7                            1                          2                    0.99972624376860708  0.021103261552046823  0.0096863037591757191
                 210213.05495496959                1.5195130406352552e-17            -3.8710097872361821e-20              6                                    0                                       3                                      3                                   0                                      9                                   1.9990524013201727e-18          1.8182303369146849e-21             0.69112536113787904                    0.69112536113787904                      0.69112536113787904            -1.7902087619712949e-19      100                      0                         100                       0                       1.3373280650892595e-17    8                            2                          2                    0.99971237048549866  0.021629858530800183  0.0095411985802682127
                 277755.57751519384                1.5214329401578007e-17             1.9198995225455934e-20              6                                    0                                       4                                      4                                   1                                      10                                  1.9990524013201727e-18          1.8182303369146849e-21             0.69112536113787904                    0.69112536113787904                      0.69112536113787904            -1.5982188097167476e-19      100                      0                         100                       0                       1.3373280650892595e-17    9                            0                          3                    0.99971237048549866  0.021629858530800183  0.0095411985802682127
                 277271.0768880432                 1.5210013537013104e-17            -4.3158645649030717e-21              7                                    0                                       4                                      4                                   0                                      11                                  1.9990470366886242e-18          1.9322606298404195e-21             0.71328545032959179                    0.71328545032959179                      0.71328545032959179            -1.6182123209689762e-19      100                      0                         100                       0                       1.3370855471791537e-17    10                           1                          3                    0.99971082712156412  0.02168812688565722  0.0095253812348389949
                 273872.11851098336                1.5179982419156223e-17            -3.0031117856881697e-20              8                                    0                                       4                                      4                                   0                                      12                                  1.999007039143795e-18          2.8595439583408895e-21             0.86841163589779391                    0.86841163589779391                      0.86841163589779391            -1.7581614765415242e-19      100                      0                         100                       0                       1.3353931983708239e-17    11                           2                          3                    0.99969907910770284  0.022095982692908737  0.0094146508933052406
# Table End
