# ODT 1.0
# Table Start
# Title: mmArchive Data Table, Fri Aug 25 01:10:24 EDT 2023
# Columns: {Oxs_RungeKuttaEvolve:evolve:Total energy} {Oxs_RungeKuttaEvolve:evolve:Energy calc count} {Oxs_RungeKuttaEvolve:evolve:Max dm/dt} Oxs_RungeKuttaEvolve:evolve:dE/dt {Oxs_RungeKuttaEvolve:evolve:Delta E} Oxs_CubicAnisotropy::Energy Oxs_UniformExchange::Energy {Oxs_UniformExchange::Max Spin Ang} {Oxs_UniformExchange::Stage Max Spin Ang} {Oxs_UniformExchange::Run Max Spin Ang} Oxs_ScriptUZeeman:rotating:Energy Oxs_ScriptUZeeman:rotating:B Oxs_ScriptUZeeman:rotating:Bx Oxs_ScriptUZeeman:rotating:By Oxs_ScriptUZeeman:rotating:Bz Oxs_Demag::Energy    Oxs_TimeDriver::Iteration {Oxs_TimeDriver::Stage iteration} Oxs_TimeDriver::Stage Oxs_TimeDriver::mx   Oxs_TimeDriver::my   Oxs_TimeDriver::mz   {Oxs_TimeDriver::Last time step} {Oxs_TimeDriver::Simulation time}
# Units:                       J                                            {}                                        deg/ns                                 J/s                                  J                                J                           J                              deg                                    deg                                      deg                                   J                              mT                           mT                            mT                            mT                       J                       {}                            {}                          {}                   {}                   {}                   {}                          s                                 s                
                       6.6555729853812614e-18                          1                                           4384.4835075738774                  -3.7327227854452165e-08                 0                                0                           0                               0                                      0                                        0                                   -1.1041823898251596e-17             75                           64.9519052838329              37.5                          0                         1.7697396883632856e-17    0                             0                           0                     1                    0                    0                          0                                0                         
                       6.6555011382460548e-18                          7                                           4385.111957044699                   -3.3155765961645826e-08                -7.1847135206635367e-23              8.7049662304195157e-27         2.5159442256119305e-25             0.01212104017119631                    0.01212104017119631                      0.01212104017119631                 -1.104182391605113e-17             75.000000000000014           64.951852040931328            37.500092219259514            0                         1.7697324793997798e-17    1                             1                           0                     0.99999999909323245  1.4198089621064979e-06 -1.4154029175663623e-05        2.1667318359367617e-15              2.1667318359367617e-15       
                       6.6552141499539346e-18                          13                                          4387.613603518791                   -3.3102347786684307e-08                -2.8698829211897468e-22              2.1754314310471956e-25         6.2865192202188091e-24             0.06058880548051758                    0.06058880548051758                      0.06058880548051758                 -1.1041824093071064e-17             75.000000000000014           64.951635797675962            37.50046675984261             0                         1.7697031738962636e-17    2                             2                           0                     0.99999997733924861  7.186252632456623e-06 -7.0761112796156593e-05        8.666927343747047e-15              1.0833659179683809e-14       
                       6.6540725234213645e-18                          19                                          4397.4265716829905                  -3.2886420299920188e-08                -1.141626532571425e-21              3.8316059062087682e-24         1.1065204023142197e-22             0.2541891261536815                     0.2541891261536815                       0.2541891261536815                  -1.1041826608710368e-17             75                           64.95071850102012             37.502055493015867            0                         1.7695784648485593e-17    3                             3                           0                     0.9999996008722426   3.1646661723818598e-05 -0.00029704458043744767        3.4667709374988188e-14              4.5501368554671997e-14       
                       6.6496093515699647e-18                          25                                          4433.6350971512366                  -3.1987941971410914e-08                -4.4631718513985357e-21              6.2354555019856315e-23         1.7953177994275945e-21             1.0237253064154432                     1.0237253064154432                       1.0237253064154432                  -1.1041865834851246e-17             75.000000000000014           64.946213575073784            37.509856601444156            0                         1.7689617514066763e-17    4                             4                           0                     0.99999350416810162  0.00015175797094925557 -0.0011998390554801624        1.3867083749995275e-13              1.8417220605462475e-13       
                       6.6497228868514206e-18                          26                                          4433.6456226972232                  -3.6691088805759972e-08                 1.1353528145583509e-22              6.2354555019856315e-23         1.7953177994275945e-21             1.0237253064154432                     1.0237253064154432                       1.0237253064154432                  -1.104175229956979e-17             75.000000000000014           64.946213575073784            37.509856601444156            0                         1.7689617514066763e-17    5                             0                           1                     0.99999350416810162  0.00015175797094925557 -0.0011998390554801624        0                                1.8417220605462475e-13       
                       6.6496578606356685e-18                          32                                          4434.1678391406276                  -3.0343721426556049e-08                -6.5026215753190633e-23              6.3806811316676284e-23         1.8370372925325367e-21             1.0355485268099263                     1.0355485268099263                       1.0355485268099263                  -1.1041750659536191e-17             75.000000000000014           64.946133491566513            37.509995261205049            0                         1.768950767606801e-17    6                             1                           1                     0.99999335286477287  0.00015389292892485588 -0.0012137595173144302        2.1427062080393883e-15              1.8631491226266414e-13       
                       6.6493981700893655e-18                          38                                          4436.2454752259127                  -3.0286509708841306e-08                -2.5969054630362191e-22              6.9781157153049971e-23         2.0086283792523274e-21             1.0828192427171339                     1.0828192427171339                       1.0828192427171339                  -1.1041744207054364e-17             75.000000000000028           64.945809974219657            37.510555405013058            0                         1.7689063967607324e-17    7                             2                           1                     0.99999273042109305  0.00016251753663922201 -0.0012694323586749739        8.5708248321575533e-15              1.9488573709482168e-13       
                       6.648365957697027e-18                          44                                          4444.37725873419                    -3.0055720305151108e-08                -1.0322123923372138e-21              9.6316203779536526e-23         2.770083532791268e-21             1.2715396574231217                     1.2715396574231217                       1.2715396574231217                  -1.1041720233098517e-17             75                           64.944464992577366            37.512884011068692            0                         1.7687219791058971e-17    8                             3                           1                     0.99998996571364607  0.00019837170024350115 -0.001491979305835305        3.4283299328630213e-14              2.2916903642345192e-13       
                       6.6443436784895717e-18                          50                                          4474.1052554742546                  -2.9103087472539661e-08                -4.0222792074570911e-21              2.4415069114773694e-22         6.9955266382121873e-21             2.0201291929083967                     2.0201291929083967                       2.0201291929083967                  -1.1041654091760277e-17             75                           64.938271787571651            37.523604001261347            0                         1.7678758092920488e-17    9                             4                           1                     0.99997455900165633  0.00036343628230607155 -0.0023798358208623051        1.3713319731452085e-13              3.6630223373797277e-13       
                       6.6444540577684317e-18                          51                                          4474.115691176924                   -3.5971819926644176e-08                 1.1037927885997733e-22              2.4415069114773694e-22         6.9955266382121873e-21             2.0201291929083967                     2.0201291929083967                       2.0201291929083967                  -1.1041543712481417e-17             75                           64.938271787571651            37.523604001261347            0                         1.7678758092920488e-17    10                            0                           2                     0.99997455900165633  0.00036343628230607155 -0.0023798358208623051        0                                3.6630223373797277e-13       
                       6.6443956875992504e-18                          57                                          4474.5417853174758                  -2.7485558274655089e-08                -5.8370169180613638e-23              2.4695765555131788e-22         7.0755086464578283e-21             2.0316350551387083                     2.0316350551387083                       2.0316350551387083                  -1.104154051951716e-17             75.000000000000014           64.938165678672476            37.523787632504337            0                         1.76786137408144e-17    11                            1                           2                     0.99997426641035514  0.00036626388737332779 -0.0023935538468326583        2.123324620043745e-15              3.6842555835801651e-13       
                       6.6441626328119243e-18                          63                                          4476.2358619279785                  -2.7425168979606166e-08                -2.3305478732613576e-22              2.5834167693789616e-22         7.3997984413717082e-21             2.0776310571547136                     2.0776310571547136                       2.0776310571547136                  -1.1041527859073259e-17             75                           64.937738131953125            37.524527529415771            0                         1.7678032351766874e-17    12                            2                           2                     0.99997307974382499  0.00037765705344909578 -0.0024484169420664207        8.4932984801749801e-15              3.7691885683819147e-13       
                       6.6432371457562123e-18                          69                                          4482.8483651823926                  -2.7182019281421559e-08                -9.2548705571102723e-22              3.0636734688850353e-22         8.7663527357476868e-21             2.2611687209021221                     2.2611687209021221                       2.2611687209021221                  -1.1041479112725239e-17             75                           64.935978186315666            37.527573022863301            0                         1.7675643538398817e-17    13                            3                           2                     0.99996807315526637  0.0004245529767607752 -0.0026677248740815912        3.397319392069992e-14              4.1089205075889141e-13       
                       6.6396443272824881e-18                          75                                          4506.7433310471306                  -2.618576950620959e-08                -3.5928184737252436e-21              5.3769968644577165e-22         1.5316541503255901e-20             2.9877244279500359                     2.9877244279500359                       2.9877244279500359                  -1.104131494693595e-17             75.000000000000014           64.928143478675096            37.54112657356707             0                         1.7665105033028736e-17    14                            4                           2                     0.99994394795448827  0.0006332654299679016 -0.0035426256072278112        1.3589277568279968e-13              5.4678482644169107e-13       
                       6.6397520786343316e-18                          76                                          4506.7536933510355                  -3.518441894224225e-08                 1.0775135184352196e-22              5.3769968644577165e-22         1.5316541503255901e-20             2.9877244279500359                     2.9877244279500359                       2.9877244279500359                  -1.1041207195584106e-17             75.000000000000014           64.928143478675096            37.54112657356707             0                         1.7665105033028736e-17    15                            0                           3                     0.99994394795448827  0.0006332654299679016 -0.0035426256072278112        0                                5.4678482644169107e-13       
                       6.6397002310843216e-18                          82                                          4507.0932072295627                  -2.4591439481286717e-08                -5.1847550009812953e-23              5.4177482605016443e-22         1.5431472956985105e-20             2.9988935124255334                     2.9988935124255334                       2.9988935124255334                  -1.1041202551847635e-17             75.000000000000028           64.928011943768183            37.541354064949488            0                         1.7664929535148923e-17    16                            1                           3                     0.99994352282965004  0.00063676870857091647 -0.0035561676308029028        2.1079474598347071e-15              5.4889277390152574e-13       
                       6.6394932755130711e-18                          88                                          4508.4418929479571                  -2.4528555031111171e-08                -2.0695557125070174e-22              5.5822202499857712e-22         1.58951793539097e-20             3.0435375668120899                     3.0435375668120899                       3.0435375668120899                  -1.1041184093695017e-17             75.000000000000014           64.927482751667256            37.542269291186336            0                         1.7664223967829179e-17    17                            2                           3                     0.99994180698467106  0.00065086287400882765 -0.0036103266875066025        8.4317898393388286e-15              5.5732456374086462e-13       
                       6.6386723215782842e-18                          94                                          4513.687772048549                   -2.4275801910163515e-08                -8.2095393478624474e-22              6.2634676310467875e-22         1.7813240310860802e-20             3.2215906535992054                     3.2215906535992054                       3.2215906535992054                  -1.1041112241987972e-17             75.000000000000014           64.925317161510264            37.546014322126169            0                         1.7661344976492291e-17    18                            3                           3                     0.99993469909292187  0.00070853568098122198 -0.003826818012050261        3.3727159357355314e-14              5.9105172309821996e-13       
                       6.6354994434455673e-18                          100                                         4532.3584675673837                  -2.3247329327090662e-08                -3.1728781327175633e-21              9.3554082258620795e-22         2.6467223478595463e-20             3.925018524721744                      3.925018524721744                        3.925018524721744                   -1.1040857115403586e-17             75                           64.9158747808562              37.562337539564794            0                         1.7648953794547972e-17    19                            4                           3                     0.99990242244150107  0.0009599220245461779 -0.004690445686359802        1.3490863742942126e-13              7.2596036052764122e-13       
                       6.6356050070737136e-18                          101                                         4532.3687677169182                  -3.4344894723798296e-08                 1.0556362814638239e-22              9.3554082258620795e-22         2.6467223478595463e-20             3.925018524721744                      3.925018524721744                        3.925018524721744                   -1.1040751551775439e-17             75                           64.9158747808562              37.562337539564794            0                         1.7648953794547972e-17    20                            0                           4                     0.99990242244150107  0.0009599220245461779 -0.004690445686359802        0                                7.2596036052764122e-13       
                       6.6355595685583298e-18                          107                                         4532.6307461786319                  -2.1673282619735145e-08                -4.5438515383078997e-23              9.4079936027671002e-22         2.6613692913169559e-20             3.9358316384887901                     3.9358316384887901                       3.9358316384887901                  -1.1040745557619441e-17             75.000000000000014           64.915718244192433            37.56260806760659             0                         1.7648750633904324e-17    21                            1                           4                     0.99990187327257563  0.00096408846070476935 -0.0047038341731855116        2.0960342123232434e-15              7.2805639473996441e-13       
                       6.6353782547744385e-18                          113                                         4533.6702131791444                  -2.1608633567762605e-08                -1.8131378389163184e-22              9.6197035828382263e-22         2.7203146026084757e-20             3.9790473880462245                     3.9790473880462245                       3.9790473880462245                  -1.1040721704518063e-17             75.000000000000014           64.915089092268914            37.563695347273701            0                         1.7647934842908134e-17    22                            2                           4                     0.99989966222711835  0.00098083384236628325 -0.0047573790305862323        8.3841368492929735e-15              7.3644053158925739e-13       
                       6.6346599542738488e-18                          119                                         4537.6940183960805                  -2.134921660495067e-08                -7.1830050058996955e-22              1.0488326131680671e-21         2.961766214447626e-20             4.1513171012086492                     4.1513171012086492                       4.1513171012086492                  -1.1040628380136264e-17             75.000000000000028           64.912524416922366            37.568127100275589            0                         1.7644621839652466e-17    23                            3                           4                     0.9998905892416079   0.0010490888897266781 -0.0049714127289846536        3.3536547397171894e-14              7.6997707898642929e-13       
                       6.6318986906774168e-18                          125                                         4551.7149717009806                  -2.0300493984572706e-08                -2.7612635964298682e-21              1.4303956254777915e-21         4.0150077843570099e-20             4.8305278462713162                     4.8305278462713162                       4.8305278462713162                  -1.104028915029605e-17             75                           64.901497687220484            37.58717331691377             0                         1.7630607367504421e-17    24                            4                           4                     0.99985070914295293  0.0013424421697247335 -0.0058251971408157981        1.3414618958868758e-13              9.0412326857511689e-13       
                       6.6320024350770188e-18                          126                                         4551.7252162386631                  -3.3469922179475617e-08                 1.0374439960199106e-22              1.4303956254777915e-21         4.0150077843570099e-20             4.8305278462713162                     4.8305278462713162                       4.8305278462713162                  -1.1040185405896448e-17             75                           64.901497687220484            37.58717331691377             0                         1.7630607367504421e-17    25                            0                           5                     0.99985070914295293  0.0013424421697247335 -0.0058251971408157981        0                                9.0412326857511689e-13       
                       6.6319633025950749e-18                          132                                         4551.9182493906355                  -1.8744301729991078e-08                -3.913248194529843e-23              1.4367542544516415e-21         4.0324589392628287e-20             4.8409661704867499                     4.8409661704867499                       4.8409661704867499                  -1.10401781604847e-17             75                           64.901316430649217            37.587486289571721            0                         1.7630380119432696e-17    26                            1                           5                     0.9998500442118623   0.0013472628410245546 -0.0058384511553322364        2.0871207176803973e-15              9.0621038929279731e-13       
                       6.6318072153169063e-18                          138                                         4552.6828429657326                  -1.8678649650329234e-08                -1.5608727816854845e-22              1.4623156534736911e-21         4.1025787361777123e-20             4.8826787354646397                     4.8826787354646397                       4.8826787354646397                  -1.1040149310196103e-17             75                           64.900588436590922            37.588743269551351            0                         1.7629468422497757e-17    27                            2                           5                     0.99984737110653354  0.0013666239848616338 -0.0058914580503289351        8.348482870721589e-15              9.1455887216351897e-13       
                       6.6311898543387521e-18                          144                                         4555.621691528303                   -1.8415623363415072e-08                -6.1736097815279214e-22              1.566579368374982e-21         4.3880468754588182e-20             5.0488718867890023                     5.0488718867890023                       5.0488718867890023                  -1.1040036121900781e-17             75                           64.897628991627442            37.593852572795434            0                         1.7625778928116572e-17    28                            3                           5                     0.99983646577263185  0.0014453232232613101 -0.0061033387348210276        3.3393931482886356e-14              9.4795280364640522e-13       
                       6.6288325042498249e-18                          150                                         4565.5357765538001                  -1.7358941894892461e-08                -2.3573500889276704e-21              2.01514470302015e-21         5.6062391270982362e-20             5.7027940004402033                     5.7027940004402033                       5.7027940004402033                  -1.1039619488784786e-17             75                           64.885032703578986            37.615588936709294            0                         1.761037445706061e-17    29                            4                           5                     0.99978951460442167  0.0017801513238120447 -0.0069484928672364993        1.3357572593154542e-13              1.0815285295779506e-12       
                       6.628934738352967e-18                          151                                         4565.5459676916416                  -3.257651484369729e-08                 1.0223410314212862e-22              2.01514470302015e-21         5.6062391270982362e-20             5.7027940004402033                     5.7027940004402033                       5.7027940004402033                  -1.1039517254681645e-17             75                           64.885032703578986            37.615588936709294            0                         1.761037445706061e-17    30                            0                           6                     0.99978951460442167  0.0017801513238120447 -0.0069484928672364993        0                                1.0815285295779506e-12       
                       6.6289018120342164e-18                          157                                         4565.6782088660884                  -1.5818592091269818e-08                -3.2926318752365665e-23              2.0225215137745461e-21         5.6261383077909282e-20             5.7128392745985233                     5.7128392745985233                       5.7128392745985233                  -1.1039508856334338e-17             75.000000000000014           64.884826893428823            37.615943946813012            0                         1.7610126763776871e-17    31                            1                           6                     0.99978874201665602  0.0017856201896684  -0.0069616285203020897        2.0808026175242383e-15              1.0836093321954748e-12       
                       6.6287705483833456e-18                          163                                         4566.2005188512685                  -1.5752713418407187e-08                -1.3126365086983334e-22              2.0521456064440238e-21         5.7060065623489112e-20             5.7529759982245601                     5.7529759982245601                       5.7529759982245601                  -1.1039475403021365e-17             75                           64.884000714296505            37.617369010965817            0                         1.7609133740174777e-17    32                            2                           6                     0.99978563927839215  0.0018075731308510993 -0.007014161877646201        8.3232104700969531e-15              1.0919325426655719e-12       
                       6.6282524608490209e-18                          169                                         4568.1843735505681                  -1.5489183255638311e-08                -5.1808753432411147e-22              2.172499096524357e-21         6.029767679540329e-20             5.9128081271666515                     5.9128081271666515                       5.9128081271666515                  -1.1039343941553314e-17             75.000000000000014           64.880648996057189            37.623149600351439            0                         1.7605126226510407e-17    33                            3                           6                     0.99977303135994955  0.0018966238584759145 -0.0072241469469968254        3.3292841880387812e-14              1.1252253845459597e-12       
                       6.6262914922974252e-18                          175                                         4574.5037970777248                  -1.4436906927803344e-08                -1.9609685515958454e-21              2.6828223806371537e-21         7.3897767332603931e-20             6.5404025028688455                     6.5404025028688455                       6.5404025028688455                  -1.1038856475866604e-17             75                           64.866491034373723            37.64755424841718             0                         1.7588567378450788e-17    34                            4                           6                     0.99971952759841698  0.0022726063220532026 -0.0080616955067817509        1.3317136752155125e-13              1.2583967520675108e-12       
# Table End
