# ODT 1.0
# Table Start
# Title: mmArchive Data Table, Thu Jun 02 21:57:37 EDT 2022
# Columns: {Oxs_RungeKuttaEvolve:evolve:Total energy} {Oxs_RungeKuttaEvolve:evolve:Energy calc count} {Oxs_RungeKuttaEvolve:evolve:Max dm/dt} Oxs_RungeKuttaEvolve:evolve:dE/dt {Oxs_RungeKuttaEvolve:evolve:Delta E} Oxs_Exchange6Ngbr::Energy {Oxs_Exchange6Ngbr::Max Spin Ang} {Oxs_Exchange6Ngbr::Stage Max Spin Ang} {Oxs_Exchange6Ngbr::Run Max Spin Ang} Oxs_FixedZeeman:Bias:Energy Oxs_UZeeman::Energy  Oxs_UZeeman::B       Oxs_UZeeman::Bx      Oxs_UZeeman::By      Oxs_UZeeman::Bz      Oxs_Demag::Energy    Oxs_TimeDriver::Iteration {Oxs_TimeDriver::Stage iteration} Oxs_TimeDriver::Stage Oxs_TimeDriver::mx   Oxs_TimeDriver::my   Oxs_TimeDriver::mz   {Oxs_TimeDriver::Last time step} {Oxs_TimeDriver::Simulation time} Oxs_TimeDriver::ax   Oxs_TimeDriver::ay   Oxs_TimeDriver::az   Oxs_TimeDriver::bx   Oxs_TimeDriver::by   Oxs_TimeDriver::bz  
# Units:                       J                                            {}                                        deg/ns                                 J/s                                  J                               J                            deg                                  deg                                    deg                               J                       J                 mT                   mT                   mT                   mT                     J                       {}                            {}                          {}                   {}                   {}                   {}                          s                                 s                         {}                   {}                   {}                   {}                   {}                   {}          
                      -5.0827738577247858e-18                          1                                           1779.2705928056023                  -3.4373030108782201e-08                 0                               0                             0                                    0                                      0                               -1.6716626571447785e-17      0                    0                    0                    0                    0                    1.1633852713723001e-17    0                             0                           0                     0.99503719020998804  0.099503719020998083  0                          0                                0                           0.99503719020999215  0.099503719020999595  0                    0.99503719020999448  0.099503719020999748  0                  
                      -5.082957302439757e-18                          7                                           1779.0804568663284                  -3.4342303871744086e-08                -1.834447149698709e-22             7.6970179391791579e-26           0.0058326830308180122                  0.0058326830308180122                    0.0058326830308180122             -1.6716631938954818e-17      0                    0                    0                    0                    0                    1.1633674559544881e-17    1                             1                           0                     0.99503741657956246  0.099501452748010977  4.5479387729125405e-06        5.3392665727252544e-15              5.3392665727252544e-15         0.99503732345470397  0.099502384103414485  2.6790702817008096e-06  0.99503750970442095  0.099500521392607497  6.4168072641242752e-06
                      -5.0836894457595711e-18                          13                                          1778.2801134676599                  -3.4220024827905076e-08                -7.3214331981481577e-22             1.9167121061527953e-24           0.029117011654925206                  0.029117011654925206                    0.029117011654925206             -1.6716653453111223e-17      0                    0                    0                    0                    0                    1.1632962090639546e-17    2                             2                           0                     0.99503832243080625  0.099492332496544392  2.2706461050896804e-05        2.1357066290901018e-14              2.669633286362627e-14         0.99503785455277982  0.09949701394402953  1.337511236694481e-05  0.99503879030883369  0.099487651049059295  3.2037809734848819e-05
                      -5.0865922221110952e-18                          19                                          1774.4585921097701                  -3.3740821696734306e-08                -2.9027763515244413e-21             3.3280932306652891e-23           0.12148034818456856                  0.12148034818456856                    0.12148034818456856             -1.6716740217064272e-17      0                    0                    0                    0                    0                    1.1630114714020869e-17    3                             3                           0                     0.99504195206028989  0.099454974021713008  9.4809947843687618e-05        8.5428265163604071e-14              1.1212459802723034e-13         0.99503994929128059  0.099475048540373895  5.583574141613838e-05  0.99504395482929908  0.099434899503052204  0.00013378415427123689
                      -5.0978136465394761e-18                          25                                          1750.3201884770499                  -3.1976317955682399e-08                -1.1221424428381223e-20             5.1124194016947359e-22           0.47677136645141605                  0.47677136645141605                    0.47677136645141605             -1.6717098645621341e-17      0                    0                    0                    0                    0                    1.1618773757141695e-17    4                             4                           0                     0.99505658507667638  0.099291822405571106  0.000374807444873512        3.4171306065441628e-13              4.5383765868164662e-13         0.99504788029316049  0.099379624470365718  0.00022052175894314097  0.99506528986019149  0.099204020340776453  0.00052909313080388336
                      -1.8484718970901315e-17                          26                                          1738.7819120827667                  -3.3103946917685076e-08                -1.3386905324361839e-17             5.1124194016947359e-22           0.47677136645141605                  0.47677136645141605                    0.47677136645141605             -1.6717098645621341e-17     -1.3386905324361839e-17  20.00099997500125    20                   0.20000000000000001  0                    1.1618773757141695e-17    5                             0                           1                     0.99505658507667638  0.099291822405571106  0.000374807444873512        0                                4.5383765868164662e-13         0.99504788029316049  0.099379624470365718  0.00022052175894314097  0.99506528986019149  0.099204020340776453  0.00052909313080388336
                      -1.8484899763924061e-17                          32                                          1738.1531972219798                  -3.3077039748614774e-08                -1.807930227478483e-22             5.2307129002860109e-22           0.48224496475271877                  0.48224496475271877                    0.48224496475271877             -1.6717105671756307e-17     -1.338690894339149e-17  20.00099997500125    20                   0.20000000000000001  0                    1.1618591779933706e-17    6                             1                           1                     0.99505688908176726  0.099288349200433945  0.00038054660216017816        5.4635949074375905e-15              4.5930125358908426e-13         0.99504807008106755  0.099377314280860787  0.00022446148799459468  0.99506570808246642  0.099199384120007172  0.00053663171632576171
                      -1.8485621470967581e-17                          38                                          1735.6155219618147                  -3.2970027045143245e-08                -7.2170704351510983e-22             5.7160554721031397e-22           0.50407044723969763                  0.50407044723969763                    0.50407044723969763             -1.6717133849256564e-17     -1.3386923438899294e-17  20.00099997500125    20                   0.20000000000000001  0                    1.1617864211641071e-17    7                             2                           1                     0.99505810725967381  0.099274384890450207  0.00040345938910378267        2.1854379629750362e-14              4.811556332188346e-13         0.99504882920490134  0.099368026641907359  0.00024019007799631705  0.99506738531444683  0.099180743138993069  0.00056672870021124853
                      -1.8488485232488009e-17                          44                                          1725.1166224581937                  -3.2551723162032308e-08                -2.8637615204287475e-21             7.8472485639005698e-22           0.59025162810434395                  0.59025162810434395                    0.59025162810434395             -1.6717247723569913e-17     -1.3386981732455612e-17  20.00099997500125    20                   0.20000000000000001  0                    1.1614959498681127e-17    8                             3                           1                     0.99506301452043866  0.099217390631802016  0.00049441087779942899        8.7417518519001447e-14              5.6857315173783606e-13         0.99505186549421354  0.099330130571965117  0.0003026201894472781  0.99507416354666389  0.099104650691638915  0.00068620156615158037
                      -1.8499594358639509e-17                          50                                          1685.0830123019909                  -3.1027629813752536e-08                -1.1109126151500138e-20             1.9109455386234688e-21           0.91611242208989452                  0.91611242208989452                    0.91611242208989452             -1.6717721626965187e-17     -1.3387219951617532e-17  20.00099997500125    20                   0.20000000000000001  0                    1.160343627440459e-17    9                             4                           1                     0.99508319654177391  0.098971652500674592  0.00084713961242181357        3.4967007407600579e-13              9.182432258138417e-13         0.99506402100444757  0.099166908187422312  0.00054465635212612039  0.9951023720790998   0.098776396813926845  0.0011496228727175075
                      -3.1886814310257045e-17                          51                                          1690.157118509271                   -3.2409993996013799e-08                -1.3387219951617535e-17             1.9109455386234688e-21           0.91611242208989452                  0.91611242208989452                    0.91611242208989452             -1.6717721626965187e-17     -2.6774439903235065e-17  40.001999950002499   40                   0.40000000000000002  0                    1.160343627440459e-17    10                            0                           2                     0.99508319654177391  0.098971652500674592  0.00084713961242181357        0                                9.182432258138417e-13         0.99506402100444757  0.099166908187422312  0.00054465635212612039  0.9951023720790998   0.098776396813926845  0.0011496228727175075
                      -3.1886996414706093e-17                          57                                          1689.342168455197                   -3.2386885898704356e-08                -1.8210444904957959e-22             1.9322336773547435e-21           0.92108779468687363                  0.92108779468687363                    0.92108779468687363             -1.6717730654606143e-17     -2.6774449384818386e-17  40.001999950002499   40                   0.40000000000000002  0                    1.1603251391041087e-17    11                            1                           2                     0.9950835981992151   0.098966760504020937  0.00085406768276143226        5.6207792139342993e-15              9.2386400502777597e-13         0.99506428695980675  0.099163424116241003  0.0005498542620985318  0.99510290943862323  0.098770096891800829  0.0011582811034243337
                      -3.1887723538815467e-17                          63                                          1686.0711358343049                  -3.2295066077704467e-08                -7.271241093800477e-22             2.0183044321178545e-21           0.94090627106491409                  0.94090627106491409                    0.94090627106491409             -1.6717766866587928e-17     -2.6774487392899998e-17  40.001999950002499   40                   0.40000000000000002  0                    1.1602512416240341e-17    12                            2                           2                     0.99508520876143403  0.098947103395298705  0.00088172403561569948        2.2483116855737197e-14              9.4634712188351329e-13         0.99506535260936646  0.099149423292031663  0.00057060421115464103  0.99510506491350126  0.098744783498565664  0.0011928438600767579
                      -3.1890611718576278e-17                          69                                          1672.8222165634891                  -3.1937463789764641e-08                -2.8881797608045795e-21             2.3768322525560377e-21           1.0188469288382522                   1.0188469288382522                     1.0188469288382522              -1.6717913328842918e-17     -2.6774640728900856e-17  40.001999950002499   40                   0.40000000000000002  0                    1.1599565506914942e-17    13                            3                           2                     0.99509171367996163  0.098867057974280387  0.00099145720866492914        8.993246742294879e-14              1.036279589306462e-12         0.99506964445597934  0.099092393834089632  0.00065293869813658895  0.99511378290394303  0.098641722114471142  0.0013299757191932693
                      -3.1901862903655369e-17                          75                                          1618.0775927018976                  -3.0654095993299435e-08                -1.1251185079093768e-20             4.011847472994729e-21           1.3091534208025779                   1.3091534208025779                     1.3091534208025779              -1.6718524444352467e-17     -2.6775274610450034e-17  40.001999950002499   40                   0.40000000000000002  0                    1.1587924303674137e-17    14                            4                           2                     0.99511871844218525  0.098524772039016953  0.0014162823987964659        3.5972986969179516e-13              1.3960094589982572e-12         0.9950872780611052   0.098848267082742192  0.00097174452183497689  0.99515015882326607  0.098201276995291756  0.001860820275757954
                      -4.5289500208880386e-17                          76                                          1628.1725140813849                  -3.2289869637304242e-08                -1.3387637305225017e-17             4.011847472994729e-21           1.3091534208025779                   1.3091534208025779                     1.3091534208025779              -1.6718524444352467e-17     -4.016291191567505e-17  60.002999925003756   60.000000000000007   0.59999999999999998  0                    1.1587924303674137e-17    15                            0                           3                     0.99511871844218525  0.098524772039016953  0.0014162823987964659        0                                1.3960094589982572e-12         0.9950872780611052   0.098848267082742192  0.00097174452183497689  0.99515015882326607  0.098201276995291756  0.001860820275757954
                      -4.5289688556270891e-17                          82                                          1627.2515419090539                  -3.2270571037001427e-08                -1.8834739050210338e-22             4.0406264661149408e-21           1.3135692577338824                   1.3135692577338824                     1.3135692577338824              -1.6718535889005252e-17     -4.0162930348544526e-17  60.002999925003756   60.000000000000007   0.59999999999999998  0                    1.1587737054812776e-17    16                            1                           3                     0.99511924144973762  0.098518187725931669  0.0014244317942667367        5.8347625437958588e-15              1.4018442215420531e-12         0.99508764284694862  0.098843357977316623  0.00097822973352480161  0.99515084005252674  0.098193017474546784  0.0018706338550086713
                      -4.5290440825197465e-17                          88                                          1623.5666884370089                  -3.2193992211323763e-08                -7.5226892657307019e-22             4.1563932484208489e-21           1.3311428081941974                   1.3311428081941974                     1.3311428081941974              -1.6718581798049879e-17     -4.016300426785572e-17  60.002999925003756   60.000000000000007   0.59999999999999998  0                    1.1586988847459713e-17    17                            2                           3                     0.99512133923019774  0.098491741304932559  0.001456958909588032        2.3339050175183435e-14              1.4251832717172365e-12         0.99508910572693154  0.09882363710180915  0.001004115400125654  0.99515357273346361  0.098159845508055968  0.0019098024190504115
                      -4.5293432368958528e-17                          94                                          1608.823622636558                   -3.1897380054344198e-08                -2.9915437610646624e-21             4.6294794758488216e-21           1.400007050835764                    1.400007050835764                      1.400007050835764               -1.6718767506037267e-17     -4.016330293096819e-17  60.002999925003756   60.000000000000007   0.59999999999999998  0                    1.158400858857108e-17    18                            3                           3                     0.99512982175501241  0.098384220749215615  0.0015859435208596599        9.335620070073374e-14              1.5185394724179703e-12         0.99509501673086687  0.098743411300384706  0.0011067778632854713  0.99516462677915773  0.098025030198046481  0.0020651091784338483
                      -4.5305142381753414e-17                          100                                         1550.4657856422291                  -3.0857070493772303e-08                -1.1710012794886612e-20             6.6586638003610149e-21           1.6531651191522205                   1.6531651191522205                     1.6531651191522205              -1.6719542491943274e-17     -4.0164544042455621e-17  60.002999925003756   60.000000000000007   0.59999999999999998  0                    1.157228548884512e-17    19                            4                           3                     0.99516517420956663  0.097927128784471046  0.0020841321357909972        3.7342480280293496e-13              1.8919642752209053e-12         0.99511959153142271  0.098401598394030648  0.0015035167171340875  0.9952107568877101   0.097452659174911485  0.0026647475544479076
                      -5.8693323729238615e-17                          101                                         1559.2410581316574                  -3.2742207580874833e-08                -1.3388181347485201e-17             6.6586638003610149e-21           1.6531651191522205                   1.6531651191522205                     1.6531651191522205              -1.6719542491943274e-17     -5.3552725389940828e-17  80.003999900004999   80                   0.80000000000000004  0                    1.157228548884512e-17    20                            0                           4                     0.99516517420956663  0.097927128784471046  0.0020841321357909972        0                                1.8919642752209053e-12         0.99511959153142271  0.098401598394030648  0.0015035167171340875  0.9952107568877101   0.097452659174911485  0.0026647475544479076
                      -5.8693523171321079e-17                          107                                         1558.2837770840606                  -3.2726915108167817e-08                -1.9944208246776708e-22             6.6931938557316888e-21           1.6569947680605828                   1.6569947680605828                     1.6569947680605828              -1.6719556796036872e-17     -5.355275678635406e-17  80.003999900004999   80                   0.80000000000000004  0                    1.1572097217214114e-17    21                            1                           4                     0.99516584416302467  0.097918534504891824  0.0020935184004236686        6.0927076993362816e-15              1.8980569829202414e-12         0.99512008000428764  0.098394969557505568  0.0015113110612514284  0.99521160832176236  0.097442099452278053  0.0026757257395959087
                      -5.8694320013574161e-17                          113                                         1554.4620458945126                  -3.2666362714272384e-08                -7.9684225307475374e-22             6.8317255860591923e-21           1.6722236593079787                   1.6722236593079787                     1.6722236593079787              -1.6719614171705595e-17     -5.3552882709805355e-17  80.003999900004999   80                   0.80000000000000004  0                    1.1571345142350729e-17    22                            2                           4                     0.99516853157582918  0.097884025834781896  0.0021309756266261371        2.4370830797345126e-14              1.9224278137175867e-12         0.99512203961188284  0.098368347424575786  0.001542417210943866  0.99521502353977587  0.097399704244987936  0.0027195340423084085
                      -5.8697492981716265e-17                          119                                         1539.3011377783171                  -3.243386019736045e-08                -3.1729681420992886e-21             7.392105031299308e-21           1.7317204856105708                   1.7317204856105708                     1.7317204856105708              -1.6719846199258171e-17     -5.3553391760090745e-17  80.003999900004999   80                   0.80000000000000004  0                    1.1568352872601351e-17    23                            3                           4                     0.99517940175662112  0.097743901887623386  0.0022794040834628912        9.7483323189380506e-14              2.0199111369069671e-12         0.99512996881108973  0.098260162528837527  0.0016657060195813212  0.99522883470215195  0.09722764124640923  0.0028931021473444602
                      -5.8709979688667921e-17                          125                                         1481.0854946238367                  -3.1648452395237529e-08                -1.2486706951663057e-20             9.7142228398485877e-21           1.9481457117608492                   1.9481457117608492                     1.9481457117608492              -1.6720813158754519e-17     -5.3555510487672058e-17  80.003999900004999   80                   0.80000000000000004  0                    1.1556629734918805e-17    24                            4                           4                     0.99522474201259747  0.097150961820709036  0.0028510223633620583        3.8993329275752202e-13              2.4098444296644891e-12         0.99516309221627952  0.097801054296977524  0.0021409345406022524  0.99528639180891565  0.096500869344440576  0.0035611101861218642
                      -7.2098857310585942e-17                          126                                         1488.6795652949413                  -3.3775966119467863e-08                -1.3388877621918021e-17             9.7142228398485877e-21           1.9481457117608492                   1.9481457117608492                     1.9481457117608492              -1.6720813158754519e-17     -6.6944388109590078e-17  100.00499987500625   100                  1                    0                    1.1556629734918805e-17    25                            0                           5                     0.99522474201259747  0.097150961820709036  0.0028510223633620583        0                                2.4098444296644891e-12         0.99516309221627952  0.097801054296977524  0.0021409345406022524  0.99528639180891565  0.096500869344440576  0.0035611101861218642
                      -7.2099072816618862e-17                          132                                         1487.7416568617539                  -3.3764976191629495e-08                -2.1550603292374436e-22             9.7528961504275457e-21           1.951398789975737                    1.951398789975737                      1.951398789975737               -1.672083076701533e-17     -6.6944437422042755e-17  100.00499987500625   100                  1                    0                    1.1556442476288795e-17    26                            1                           5                     0.99522558537842587  0.097140006863831521  0.0028616274178041644        6.3814941922157931e-15              2.4162259238567049e-12         0.99516373083728582  0.097792374743681118  0.0021500348354263127  0.99528743991956614  0.096487638983981952  0.0035732200001820135
                      -7.2099934145281686e-17                          138                                         1484.0032928650778                  -3.372162719410157e-08                -8.6132866282073525e-22             9.9077907320749604e-21           1.9643275301323331                   1.9643275301323331                     1.9643275301323331              -1.6720901386296393e-17     -6.6944635199235931e-17  100.00499987500625   100                  1                    0                    1.1555694649518571e-17    27                            2                           5                     0.99522896824689255  0.097096031316558473  0.0029039394201671623        2.5525976768863172e-14              2.4417519006255679e-12         0.99516629304603055  0.097757525285751809  0.0021863459255161174  0.995291643447755    0.096434537347365165  0.0036215329148182062
                      -7.210336876273229e-17                          144                                         1469.2654442823518                  -3.3557798696417053e-08                -3.4346174506078171e-21             1.0530327790450082e-20           2.0147286051541666                   2.0147286051541666                     2.0147286051541666              -1.6721186808389028e-17     -6.6945434650160198e-17  100.00499987500625   100                  1                    0                    1.1552722368026486e-17    28                            3                           5                     0.99524264857184119  0.09691765793518381  0.0030714624202014379        1.0210390707545269e-13              2.5438558077010208e-12         0.99517666428745688  0.097616043956921777  0.0023301541346884627  0.99530863285622573  0.096219271913445828  0.0038127707057144158
                      -7.211696189631944e-17                          150                                         1413.9029230503118                  -3.3043006844796577e-08                -1.3593133587152156e-20             1.3052694742058379e-20           2.19680920015601                     2.19680920015601                       2.19680920015601                -1.672237337068319e-17     -6.6948759697782664e-17  100.00499987500625   100                  1                    0                    1.154111847740436e-17    29                            4                           5                     0.99529964593092524  0.096165909560184989  0.00371436575656764        4.0841562830181076e-13              2.9522714360028313e-12         0.99522003030514328  0.09701782036307155  0.0028827459287527812  0.99537926155670853  0.095313998757298429  0.0045459855843824996
                      -8.5506713835875973e-17                          151                                         1420.4305074564345                  -3.5402647968636365e-08                -1.3389751939556533e-17             1.3052694742058379e-20           2.19680920015601                     2.19680920015601                       2.19680920015601                -1.672237337068319e-17     -8.0338511637339209e-17  120.00599985000751   120.00000000000001   1.2                  0                    1.154111847740436e-17    30                            0                           6                     0.99529964593092524  0.096165909560184989  0.00371436575656764        0                                2.9522714360028313e-12         0.99522003030514328  0.09701782036307155  0.0028827459287527812  0.99537926155670853  0.095313998757298429  0.0045459855843824996
                      -8.5506950591397412e-17                          157                                         1419.5495310323488                  -3.5396259855545822e-08                -2.3675552143421083e-22             1.309401023361472e-20           2.199529668154339                    2.199529668154339                      2.199529668154339               -1.6722394694113373e-17     -8.0338584661967381e-17  120.00599985000751   120.00000000000001   1.2                  0                    1.154093475444973e-17    31                            1                           6                     0.9953006883191049   0.096152227076837626  0.0037261245104736147        6.6881131812718204e-15              2.9589595491841029e-12         0.99522084582983983  0.09700673587901712  0.0028931092628788034  0.99538053080836986  0.095297718274658133  0.004559139758068426