# ODT 1.0
# Table Start
# Title: mmArchive Data Table, Wed Jun 11 15:41:37 EDT 2014
# Columns: {Oxs_RungeKuttaEvolve:evolve:Total energy} {Oxs_RungeKuttaEvolve:evolve:Energy calc count} {Oxs_RungeKuttaEvolve:evolve:Max dm/dt} Oxs_RungeKuttaEvolve:evolve:dE/dt {Oxs_RungeKuttaEvolve:evolve:Delta E} Oxs_Exchange6Ngbr::Energy {Oxs_Exchange6Ngbr::Max Spin Ang} {Oxs_Exchange6Ngbr::Stage Max Spin Ang} {Oxs_Exchange6Ngbr::Run Max Spin Ang} Oxs_FixedZeeman:Bias:Energy Oxs_TwoSurfaceExchange:AF:Energy Oxs_UZeeman::Energy  Oxs_UZeeman::B       Oxs_UZeeman::Bx      Oxs_UZeeman::By      Oxs_UZeeman::Bz      Oxs_Demag::Energy    Oxs_TimeDriver::Iteration {Oxs_TimeDriver::Stage iteration} Oxs_TimeDriver::Stage Oxs_TimeDriver::mx   Oxs_TimeDriver::my   Oxs_TimeDriver::mz   {Oxs_TimeDriver::Last time step} {Oxs_TimeDriver::Simulation time}
# Units:                       J                                            {}                                        deg/ns                                 J/s                                  J                               J                            deg                                  deg                                    deg                               J                             J                          J                 mT                   mT                   mT                   mT                     J                       {}                            {}                          {}                   {}                   {}                   {}                          s                                 s                
                      -5.0827720818038322e-18                          1                                           1779.2705928055548                  -3.4373029895270658e-08                 0                               0                             0                                    0                                      0                               -1.6716624795527818e-17            0                          0                    0                    0                    0                    0                    1.1633852713723987e-17    0                             0                           0                     0.99503719020998915  0.099503719020998901  0                          0                                0                         
                      -5.0829555304620141e-18                          7                                           1779.1438558757845                  -3.4343781082677403e-08                -1.8344865818141474e-22             7.6971982263893891e-26           0.0058327658509446743                  0.0058327658509446743                    0.0058327658509446743             -1.6716630162950064e-17           -9.8561981403148995e-27        0                    0                    0                    0                    0                    1.1633674565372266e-17    1                             1                           0                     0.99503741657954725  0.099501452748108996  4.5479385748551565e-06        5.3392665727253972e-15              5.3392665727253972e-15       
                      -5.0836877684072152e-18                          13                                          1778.5968129532084                  -3.4227407846650413e-08                -7.3223794520081377e-22             1.9169372685755853e-24           0.029119078507272418                  0.029119078507272418                    0.029119078507272418             -1.6716651675089744e-17           -2.4585162431256526e-25        0                    0                    0                    0                    0                    1.1632962235596885e-17    2                             2                           0                     0.99503832243007539  0.099492332496925198  2.270646011969279e-05        2.1357066290901589e-14              2.6696332863626984e-14       
                      -5.0865921825233094e-18                          19                                          1775.7835549944125                  -3.3771763694828644e-08                -2.904414116094068e-21             3.3297550896795965e-23           0.12151654560865104                  0.12151654560865104                    0.12151654560865104             -1.6716738404137577e-17           -4.2980450465280215e-24        0                    0                    0                    0                    0                    1.1630117222108418e-17    3                             3                           0                     0.99504195200956436  0.099454974015201786  9.4809948094687563e-05        8.5428265163606355e-14              1.1212459802723333e-13       
                      -5.0978401406481267e-18                          25                                          1755.5876561018626                  -3.2100353668531335e-08                -1.124795812481733e-20             5.1232235319183443e-22           0.47734617416735131                  0.47734617416735131                    0.47734617416735131             -1.6717096263672805e-17           -6.7944057317978717e-23        0                    0                    0                    0                    0                    1.1618811744728804e-17    4                             4                           0                     0.99505658171907485  0.099291821837855898  0.0003748077041331376        3.4171306065442542e-13              4.5383765868165874e-13       
                      -1.84847454198075e-17                          26                                          1743.1429654212159                  -3.3227711804856969e-08                -1.3386905279159375e-17             5.1232235319183443e-22           0.47734617416735131                  0.47734617416735131                    0.47734617416735131             -1.6717096263672805e-17           -6.7944057317978717e-23       -1.3386905279159375e-17  20.00099997500125    20                   0.20000000000000001  0                    1.1618811744728804e-17    5                             0                           1                     0.99505658171907485  0.099291821837855898  0.0003748077041331376        0                                4.5383765868165874e-13       
                      -1.8484926439200132e-17                          32                                          1742.5673858870259                  -3.3202336413666099e-08                -1.8101939263236388e-22             5.2416091408328535e-22           0.48281965963681311                  0.48281965963681311                    0.48281965963681311             -1.6717103257587585e-17           -6.9545160825419729e-23       -1.3386908887484239e-17  20.00099997500125    20                   0.20000000000000001  0                    1.1618631090118431e-17    6                             1                           1                     0.99505688484090504  0.099288357310062553  0.00038053251807208599        5.4499259030680849e-15              4.5928758458472681e-13       
                      -1.8485649138795459e-17                          38                                          1740.2421266130832                  -3.3101441793027011e-08                -7.226995953246354e-22             5.7273519069241508e-22           0.50464653620785938                  0.50464653620785938                    0.50464653620785938             -1.6717131304098807e-17           -7.6126282881383768e-23       -1.3386923339675268e-17  20.00099997500125    20                   0.20000000000000001  0                    1.1617908896070804e-17    7                             2                           1                     0.99505809944522561  0.099274428061265935  0.00040338815289135498        2.179970361227234e-14              4.810872881969992e-13       
                      -1.8488518257219107e-17                          44                                          1731.4845919560476                  -3.2707465277567359e-08                -2.8691184236485923e-21             7.8608002140434009e-22           0.59086262209374796                  0.59086262209374796                    0.59086262209374796             -1.6717244620751059e-17           -1.0524283896488122e-22       -1.3386981451467341e-17  20.00099997500125    20                   0.20000000000000001  0                    1.1615026977816855e-17    8                             3                           1                     0.99506299172370583  0.099217579618556664  0.00049411456215666197        8.7198814449089359e-14              5.6828610264608854e-13       
                      -1.8499670584252264e-17                          50                                          1695.5460141812796                  -3.1278345474006643e-08                -1.11523270331572e-20             1.9151337264186218e-21           0.91731660578211438                  0.91731660578211438                    0.91731660578211438             -1.6717715756254266e-17           -2.6419838864710982e-22       -1.3387218773705691e-17  20.00099997500125    20                   0.20000000000000001  0                    1.160361301036992e-17    9                             4                           1                     0.99508310032216862  0.098972510236185723  0.00084599870198776169        3.4879525779635743e-13              9.1708136044244593e-13       
                      -3.1886889357957953e-17                          51                                          1698.9696527841065                  -3.2659744043345727e-08                -1.3387218773705691e-17             1.9151337264186218e-21           0.91731660578211438                  0.91731660578211438                    0.91731660578211438             -1.6717715756254266e-17           -2.6419838864710982e-22       -2.6774437547411382e-17  40.001999950002499   40                   0.40000000000000002  0                    1.160361301036992e-17    10                            0                           2                     0.99508310032216862  0.098972510236185723  0.00084599870198776169        0                                9.1708136044244593e-13       
                      -3.1887071918664255e-17                          57                                          1698.2094954117974                  -3.2638181708484654e-08                -1.825607063004657e-22             1.9364454351568722e-21           0.92229379259760291                  0.92229379259760291                    0.92229379259760291             -1.6717724705369656e-17           -2.6726958654748159e-22       -2.677444696524707e-17  40.001999950002499   40                   0.40000000000000002  0                    1.1603430576103864e-17    11                            1                           2                     0.995083499340364    0.098967645007748337  0.0008528918340595463        5.5916243026662204e-15              9.2267298474511218e-13       
                      -3.1887800960829637e-17                          63                                          1695.1573721987997                  -3.2552531044143598e-08                -7.2904216538438124e-22             2.0226193908918443e-21           0.94212169129505496                  0.94212169129505496                    0.94212169129505496             -1.6717760600389706e-17           -2.7971301158658414e-22       -2.6774484715818108e-17  40.001999950002499   40                   0.40000000000000002  0                    1.1602701448998867e-17    12                            2                           2                     0.99508509924287891  0.098948095868743688  0.00088040901254345441        2.2366497210664882e-14              9.45039481955777e-13       
                      -3.1890698290599028e-17                          69                                          1682.7796149404246                  -3.2219384471122646e-08                -2.8973297693907311e-21             2.3817183018459049e-21           1.0201343264957889                   1.0201343264957889                     1.0201343264957889              -1.6717905749197948e-17           -3.3199103702571339e-22       -2.6774636980421811e-17  40.001999950002499   40                   0.40000000000000002  0                    1.1599794711755906e-17    13                            3                           2                     0.99509155984204978  0.098868496530911676  0.0009895947081903422        8.9465988842659527e-14              1.0345054707984365e-12       
                      -3.1902009055129593e-17                          75                                          1631.431894898247                   -3.1030404104129754e-08                -1.1310764530559507e-20             4.0224625233146856e-21           1.3112502963283885                   1.3112502963283885                     1.3112502963283885              -1.6718510891702462e-17           -5.7908543250736382e-22       -2.6775265850031041e-17  40.001999950002499   40                   0.40000000000000002  0                    1.1588324309513105e-17    14                            4                           2                     0.99511835812385996  0.098528213027091763  0.001412374975168448        3.5786395537063811e-13              1.3923694261690747e-12       
                      -4.5289641980145108e-17                          76                                          1641.5335315428995                  -3.2664102449149424e-08                -1.338763292501552e-17             4.0224625233146856e-21           1.3112502963283885                   1.3112502963283885                     1.3112502963283885              -1.6718510891702462e-17           -5.7908543250736382e-22       -4.016289877504656e-17  60.002999925003756   60.000000000000007   0.60000000000000009  0                    1.1588324309513105e-17    15                            0                           3                     0.99511835812385996  0.098528213027091763  0.001412374975168448        0                                1.3923694261690747e-12       
                      -4.5289830964709974e-17                          82                                          1640.6688932605575                  -3.2646328618635184e-08                -1.8898456486304371e-22             4.0513046310996186e-21           1.3156726389674693                   1.3156726389674693                     1.3156726389674693              -1.6718522190394878e-17           -5.8354574783117883e-22       -4.016291700277341e-17  60.002999925003756   60.000000000000007   0.60000000000000009  0                    1.1588140469575043e-17    16                            1                           3                     0.9951188754575242   0.098521687316539444  0.0014204616293707157        5.7872713639122685e-15              1.3981566975329868e-12       
                      -4.5290585879535423e-17                          88                                          1637.2089109470401                  -3.2575830179549689e-08                -7.5491482545234452e-22             4.1673403980761527e-21           1.3332746858133939                   1.3332746858133939                     1.3332746858133939              -1.6718567511629005e-17           -6.0152988319612686e-22       -4.0162990094515989e-17  60.002999925003756   60.000000000000007   0.60000000000000009  0                    1.1587405916094687e-17    17                            2                           3                     0.99512095035188219  0.098495477004193976  0.0014527389114886951        2.3149085455649074e-14              1.421305782988636e-12       
                      -4.5293589546855973e-17                          94                                          1623.357645956426                   -3.2303244066870247e-08                -3.0036673205447722e-21             4.6417819562124455e-21           1.4022917958495926                   1.4022917958495926                     1.4022917958495926              -1.6718750805290632e-17           -6.7571949628798231e-22       -4.0163285334129933e-17  60.002999925003756   60.000000000000007   0.60000000000000009  0                    1.1584480530104671e-17    18                            3                           3                     0.99512933825530092  0.098388927768345485  0.0015807422124856228        9.2596341822596296e-14              1.5139021248112322e-12       
                      -4.5305371754329905e-17                          100                                         1568.4312821473286                  -3.1354541454049855e-08                -1.1782207473936777e-20             6.6817084413070295e-21           1.6566354078062617                   1.6566354078062617                     1.6566354078062617              -1.6719515152388971e-17           -1.0065023030770759e-21       -4.0164510863246739e-17  60.002999925003756   60.000000000000007   0.60000000000000009  0                    1.1572979055167574e-17    19                            4                           3                     0.99516426127140034  0.097936132896516551  0.0020752883305605262        3.7038536729038518e-13              1.8842874921016175e-12       
                      -5.8693542042078818e-17                          101                                         1577.2180143154735                  -3.3236111017726189e-08                -1.3388170287748913e-17             6.6817084413070295e-21           1.6566354078062617                   1.6566354078062617                     1.6566354078062617              -1.6719515152388971e-17           -1.0065023030770759e-21       -5.3552681150995652e-17  80.003999900004999   80                   0.80000000000000004  0                    1.1572979055167574e-17    20                            0                           4                     0.99516426127140034  0.097936132896516551  0.0020752883305605262        0                                1.8842874921016175e-12       
                      -5.869374219024774e-17                          107                                         1576.3177692032768                  -3.3222277354093955e-08                -2.0014816892160174e-22             6.7163800897046535e-21           1.6604787959409526                   1.6604787959409526                     1.6604787959409526              -1.6719529214126054e-17           -1.0122895089642064e-21       -5.355271204331741e-17  80.003999900004999   80                   0.80000000000000004  0                    1.1572794976614978e-17    21                            1                           4                     0.99516492074992025  0.097927648440645207  0.0020845763463729163        6.0232636920033424e-15              1.890310755793621e-12       
                      -5.8694541955058246e-17                          113                                         1572.7234811566116                  -3.3167536795549273e-08                -7.9976481050851186e-22             6.8555033855841778e-21           1.6757652689406679                   1.6757652689406679                     1.6757652689406679              -1.6719585614944086e-17           -1.0355660570987147e-21       -5.3552835935442728e-17  80.003999900004999   80                   0.80000000000000004  0                    1.1572059658000081e-17    22                            2                           4                     0.99516756595650602  0.097893581884225367  0.0021216425319102281        2.4093054768013369e-14              1.9144038105616341e-12       
                      -5.8697728164460844e-17                          119                                         1558.4609950503789                  -3.2957913380341628e-08                -3.1862094025869961e-21             7.4186650455925961e-21           1.7355332951968416                   1.7355332951968416                     1.7355332951968416              -1.6719813657200298e-17           -1.1306836089211336e-21       -5.3553336620312281e-17  80.003999900004999   80                   0.80000000000000004  0                    1.1569134131615071e-17    23                            3                           4                     0.99517826240029705  0.097755270967828795  0.0022685379342236704        9.6372219072053478e-14              2.0107760296336878e-12       
                      -5.8710291415774922e-17                          125                                         1503.6522384578871                  -3.225851508750062e-08                -1.2563251314080383e-20             9.7592662254083785e-21           1.9536242685851153                   1.9536242685851153                     1.9536242685851153              -1.6720763359810699e-17           -1.5413590936543354e-21       -5.3555418002407935e-17  80.003999900004999   80                   0.80000000000000004  0                    1.1557672039311963e-17    24                            4                           4                     0.99522282866349221  0.09717026312981189  0.0028345111132246138        3.8548887628821391e-13              2.3962649059219017e-12       
                      -7.2099145916376902e-17                          126                                         1511.2610384036832                  -3.4380657359047911e-08                -1.3388854500601984e-17             9.7592662254083785e-21           1.9536242685851153                   1.9536242685851153                     1.9536242685851153              -1.6720763359810699e-17           -1.5413590936543354e-21       -6.6944272503009915e-17  100.00499987500626   100.00000000000001   1                    0                    1.1557672039311963e-17    25                            0                           5                     0.99522282866349221  0.09717026312981189  0.0028345111132246138        0                                2.3962649059219017e-12       
                      -7.2099362007663374e-17                          132                                         1510.3795733000395                  -3.4371003345888486e-08                -2.1609128647125504e-22             9.7982084136963341e-21           1.9568997775010735                   1.9568997775010735                     1.9568997775010735              -1.6720780592978144e-17           -1.5484049600578173e-21       -6.6944320761565919e-17  100.00499987500626   100.00000000000001   1                    0                    1.1557489543427052e-17    26                            1                           5                     0.9952236544779538   0.0971594950110415   0.0028449754391980421        6.2861410164022175e-15              2.4025510469383039e-12       
                      -7.2100225771448452e-17                          138                                         1506.8660686001992                  -3.4332970337581782e-08                -8.6376378507529203e-22             9.9542125213116149e-21           1.9699207566014123                   1.9699207566014123                     1.9699207566014123              -1.672084970475781e-17           -1.5767004180563971e-21       -6.6944514295933714e-17  100.00499987500626   100.00000000000001   1                    0                    1.1556760717139822e-17    27                            2                           5                     0.99522696669271415  0.097116271106133523  0.0028867276504856137        2.514456406560887e-14              2.4276956110039127e-12       
                      -7.2103671609485685e-17                          144                                         1493.013073787499                   -3.4189972405773874e-08                -3.4458380372356159e-21             1.0581741179073414e-20           2.0207295267538088                   2.0207295267538088                     2.0207295267538088              -1.6721128984471168e-17           -1.6916426230676234e-21       -6.6945296340935526e-17  100.00499987500626   100.00000000000001   1                    0                    1.1553863617365007e-17    28                            3                           5                     0.99524035725773796  0.096940972046924312  0.0030520611643704196        1.0057825626243548e-13              2.5282738672663483e-12       
                      -7.211733176950631e-17                          150                                         1440.9627231134                     -3.3752140315423127e-08                -1.3660160020631726e-20             1.3133395530306765e-20           2.2049667908652224                   2.2049667908652224                     2.2049667908652224              -1.6722289286903337e-17           -2.177651884760254e-21       -6.6948544895874254e-17  100.00499987500626   100.00000000000001   1                    0                    1.1542546669625728e-17    29                            4                           5                     0.99529608307708517  0.09620254924720778  0.0036869830898716661        4.0231302504974192e-13              2.93058689231609e-12       
                      -8.5507040748681161e-17                          151                                         1447.5059162859104                  -3.6104420965299339e-08                -1.3389708979174851e-17             1.3133395530306765e-20           2.2049667908652224                   2.2049667908652224                     2.2049667908652224              -1.6722289286903337e-17           -2.177651884760254e-21       -8.0338253875049105e-17  120.00599985000751   120.00000000000001   1.2000000000000002   0                    1.1542546669625728e-17    30                            0                           6                     0.99529608307708517  0.09620254924720778  0.0036869830898716661        0                                2.93058689231609e-12       
                      -8.5507277685233322e-17                          157                                         1446.6794982993613                  -3.6099180150178593e-08                -2.3693655215902826e-22             1.3175161226670594e-20           2.2077181179642071                   2.2077181179642071                     2.2077181179642071              -1.6722310061092135e-17           -2.1858646074410374e-21       -8.0338324934351792e-17  120.00599985000751   120.00000000000001   1.2000000000000002   0                    1.1542368013591375e-17    31                            1                           6                     0.99529709813473755  0.096189162656938415  0.0036985541290221573        6.5630128990253927e-15              2.9371499052151155e-12       
                      -8.5508225092968645e-17                          163                                         1443.3891525333111                  -3.6078772963463861e-08                -9.4740773531639911e-22             1.3342289315839054e-20           2.2186526156469779                   2.2186526156469779                     2.2186526156469779              -1.6722393357557077e-17           -2.2188104339034568e-21       -8.0338609872037326e-17  120.00599985000751   120.00000000000001   1.2000000000000002   0                    1.154165465774383e-17    32                            2                           6                     0.99530116879709907  0.09613544176494393  0.0037447114146920064        2.6252051596101571e-14              2.9634019568112172e-12       
                      -8.5512009710043454e-17                          169                                         1430.4724341706649                  -3.6005816042460054e-08                -3.7846170748160424e-21             1.4011659288690222e-20           2.2612823089864906                   2.2612823089864906                     2.2612823089864906              -1.6722729693300595e-17           -2.3520821858724145e-21       -8.0339760667928673e-17  120.00599985000751   120.00000000000001   1.2000000000000002   0                    1.153882107408299e-17    33                            3                           6                     0.99531761609209957  0.095917790503166775  0.0039273185249986192        1.0500820638440628e-13              3.0684101631956233e-12       
                      -8.5527091717515839e-17                          175                                         1382.6374078126066                  -3.5838927280253709e-08                -1.5082007472386677e-20             1.6692245832717409e-20           2.4156002912568315                   2.4156002912568315                     2.4156002912568315              -1.6724122521283379e-17           -2.9071246341566134e-21       -8.0344530125974924e-17  120.00599985000751   120.00000000000001   1.2000000000000002   0                    1.1527775808543896e-17    34                            4                           6                     0.9953858943757915   0.09500446863973637  0.0046258993339940721        4.2003282553762513e-13              3.4884429887332485e-12       
# Table End
