# ODT 1.0
# Table Start
# Title: mmArchive Data Table, Wed Jun 16 18:45:50 EDT 2010
# Columns: {Oxs_RungeKuttaEvolve:evolve:Total energy} {Oxs_RungeKuttaEvolve:evolve:Energy calc count} {Oxs_RungeKuttaEvolve:evolve:Max dm/dt} Oxs_RungeKuttaEvolve:evolve:dE/dt {Oxs_RungeKuttaEvolve:evolve:Delta E} Oxs_Exchange6Ngbr::Energy {Oxs_Exchange6Ngbr::Max Spin Ang} {Oxs_Exchange6Ngbr::Stage Max Spin Ang} {Oxs_Exchange6Ngbr::Run Max Spin Ang} Oxs_FixedZeeman:Bias:Energy Oxs_UZeeman::Energy  Oxs_UZeeman::B       Oxs_UZeeman::Bx      Oxs_UZeeman::By      Oxs_UZeeman::Bz      Oxs_Demag::Energy    Oxs_TimeDriver::Iteration {Oxs_TimeDriver::Stage iteration} Oxs_TimeDriver::Stage Oxs_TimeDriver::mx   Oxs_TimeDriver::my   Oxs_TimeDriver::mz   {Oxs_TimeDriver::Last time step} {Oxs_TimeDriver::Simulation time}
# Units:                       J                                            {}                                        deg/ns                                 J/s                                  J                               J                            deg                                  deg                                    deg                               J                       J                 mT                   mT                   mT                   mT                     J                       {}                            {}                          {}                   {}                   {}                   {}                          s                                 s                
                      -5.082773857734608e-18                          1                                           1779.2705928064224                  -3.4373030108838052e-08                 0                               0                             0                                    0                                      0                               -1.6716626571447788e-17      0                    0                    0                    0                    0                    1.1633852713713178e-17    0                             0                           0                     0.99503719020998915  0.099503719020998901  0                          0                                0                         
                      -5.0829573024495762e-18                          7                                           1779.0804568671497                  -3.4342303871799904e-08                -1.8344471496828937e-22             7.6970179391720762e-26           0.0058326830308265314                  0.0058326830308265314                    0.0058326830308265314             -1.6716631938954818e-17      0                    0                    0                    0                    0                    1.1633674559535061e-17    1                             1                           0                     0.99503741657956257  0.099501452748010977  4.5479387729122796e-06        5.3392665727227932e-15              5.3392665727227932e-15       
                      -5.0836894457693918e-18                          13                                          1778.280113468486                   -3.4220024827960749e-08                -7.321433198159418e-22             1.9167121061510255e-24           0.029117011654689252                  0.029117011654689252                    0.029117011654689252             -1.6716653453111223e-17      0                    0                    0                    0                    0                    1.1632962090629725e-17    2                             2                           0                     0.99503832243080637  0.099492332496544392  2.2706461050895513e-05        2.1357066290891173e-14              2.6696332863613964e-14       
                      -1.8470376268726967e-17                          14                                          1779.5862721223032                  -3.5394212150371609e-08                -1.3386686822957574e-17             1.9167121061510255e-24           0.029117011654689252                  0.029117011654689252                    0.029117011654689252             -1.6716653453111223e-17     -1.3386686822957574e-17  20.00099997500125    20                   0.20000000000000001  0                    1.1632962090629725e-17    3                             0                           1                     0.99503832243080637  0.099492332496544392  2.2706461050895513e-05        0                                2.6696332863613964e-14       
                      -1.8470565131184069e-17                          20                                          1779.1971573554179                  -3.5363069614225051e-08                -1.888624571032039e-22             2.7571519834141936e-24           0.034925079316242599                  0.034925079316242599                    0.034925079316242599             -1.671665996757094e-17     -1.3386690369728563e-17  20.00099997500125    20                   0.20000000000000001  0                    1.163278244896345e-17    4                             1                           1                     0.99503861596846088  0.099489368396187605  2.8581983092474157e-05        5.3383194447046769e-15              3.2034652308318641e-14       
                      -1.847131892381585e-17                          26                                          1777.6070094383385                  -3.5239159894733373e-08                -7.537926317824568e-22             7.6274060074522152e-24           0.058109099662048344                  0.058109099662048344                    0.058109099662048344             -1.6716686094866071e-17     -1.338670457285244e-17  20.00099997500125    20                   0.20000000000000001  0                    1.1632064116496651e-17    5                             2                           1                     0.99503979203206383  0.099477440040917631  5.2041403422179159e-05        2.1353277778818708e-14              5.3387930087137349e-14       
                      -3.185802349666829e-17                          27                                          1792.4358361369968                  -3.6713430022542052e-08                -1.338670457285244e-17             7.6274060074522152e-24           0.058109099662048344                  0.058109099662048344                    0.058109099662048344             -1.6716686094866071e-17     -2.677340914570488e-17  40.001999950002499   40                   0.40000000000000002  0                    1.1632064116496651e-17    6                             0                           2                     0.99503979203206383  0.099477440040917631  5.2041403422179159e-05        0                                5.3387930087137349e-14       
                      -3.1858217996542428e-17                          33                                          1792.0133386656084                  -3.6682064640779019e-08                -1.9449987413809918e-22             9.2077456444099233e-24           0.063851003816655635                  0.063851003816655635                    0.063851003816655635             -1.6716693714456686e-17     -2.6773417813380072e-17  40.001999950002499   40                   0.40000000000000002  0                    1.1631884323548686e-17    7                             1                           2                     0.99504015093743725  0.099473795319031513  5.9188545740998931e-05        5.300050249203961e-15              5.8687980336341308e-14       
                      -3.1858994339183888e-17                          39                                          1790.2911098114405                  -3.6557297770806758e-08                -7.7634264145915349e-22             1.6993340333810751e-23           0.086769264298483625                  0.086769264298483625                    0.086769264298483625             -1.6716724285888576e-17     -2.6773452551419331e-17  40.001999950002499   40                   0.40000000000000002  0                    1.1631165504783684e-17    8                             2                           2                     0.99504158994130454  0.099459128709302694  8.7725366993059942e-05        2.1200200996815844e-14              7.9888181333157159e-14       
                      -4.5245720614893554e-17                          40                                          1805.0283656532533                  -3.8331374963913079e-08                -1.3386726275709665e-17             1.6993340333810751e-23           0.086769264298483625                  0.086769264298483625                    0.086769264298483625             -1.6716724285888576e-17     -4.0160178827128996e-17  60.002999925003756   60.000000000000007   0.60000000000000009  0                    1.1631165504783684e-17    9                             0                           3                     0.99504158994130454  0.099459128709302694  8.7725366993059942e-05        0                                7.9888181333157159e-14       
                      -4.5245922272547775e-17                          46                                          1804.5733553138368                  -3.8299750204774978e-08                -2.0165765422347836e-22             1.928667195486601e-23           0.092445828830519591                  0.092445828830519591                    0.092445828830519591             -1.6716733007625448e-17     -4.0160194183785069e-17  60.002999925003756   60.000000000000007   0.60000000000000009  0                    1.1630985632190786e-17    10                            1                           3                     0.99504201405820791  0.099454803963599056  9.6122017020391483e-05        5.2630751852821318e-15              8.5151256518439283e-14       
                      -4.5246727244555831e-17                          52                                          1802.7224892308677                  -3.8173988681997012e-08                -8.0497200805277517e-22             2.9881378032560787e-23           0.11510169310949783                  0.11510169310949783                    0.11510169310949783             -1.6716768010230596e-17     -4.0160255761878497e-17  60.002999925003756   60.000000000000007   0.60000000000000009  0                    1.163026664617523e-17    11                            2                           3                     0.99504371531528402  0.099437401701985173  0.00012964765946708596        2.1052300741128527e-14              1.0620355725956782e-13       
                      -5.8633479165181999e-17                          53                                          1817.3685290110971                  -4.024753322826242e-08                -1.3386751920626164e-17             2.9881378032560787e-23           0.11510169310949783                  0.11510169310949783                    0.11510169310949783             -1.6716768010230596e-17     -5.3547007682504658e-17  80.003999900004999   80                   0.80000000000000004  0                    1.163026664617523e-17    12                            0                           4                     0.99504371531528402  0.099437401701985173  0.00012964765946708596        0                                1.0620355725956782e-13       
                      -5.8633689469173418e-17                          59                                          1816.8818425287889                  -4.021560743468834e-08                -2.1030399142823714e-22             3.2861877958505821e-23           0.12071371441845989                  0.12071371441845989                    0.12071371441845989             -1.6716777831222074e-17     -5.3547031290249243e-17  80.003999900004999   80                   0.80000000000000004  0                    1.1630086790419933e-17    13                            1                           4                     0.99504420449269493  0.099432397176255086  0.00013927244945525176        5.2273382356683212e-15              1.1143089549523613e-13       
                      -5.8634529022458876e-17                          65                                          1814.9056517825613                  -4.0088693057101575e-08                -8.3955328544917339e-22             4.6163728900840088e-23           0.1431104320333724                   0.1431104320333724                     0.1431104320333724              -1.6716817252453867e-17     -5.3547125987375338e-17  80.003999900004999   80                   0.80000000000000004  0                    1.162936805364143e-17    14                            2                           4                     0.99504616733934403  0.09941226043934652  0.00017770131168679727        2.0909352942673285e-14              1.3234024843790941e-13       
                      -7.2021310519302705e-17                          66                                          1829.4608194303801                  -4.2461302193236018e-08                -1.3386781496843835e-17             4.6163728900840088e-23           0.1431104320333724                   0.1431104320333724                     0.1431104320333724              -1.6716817252453867e-17     -6.6933907484219167e-17  100.00499987500626   100.00000000000001   1                    0                    1.162936805364143e-17    15                            0                           5                     0.99504616733934403  0.09941226043934652  0.00017770131168679727        0                                1.3234024843790941e-13       
                      -7.2021530927961136e-17                          72                                          1828.9432621498388                  -4.242902879727502e-08                -2.204086584366571e-22             4.9806590461001065e-23           0.1486586803968927                   0.1486586803968927                     0.1486586803968927              -1.6716828169893225e-17     -6.6933940899260242e-17  100.00499987500626   100.00000000000001   1                    0                    1.1629188334601868e-17    16                            1                           5                     0.99504672143095785  0.09940657604147185  0.00018853356994259424        5.1927868031401266e-15              1.3753303524104955e-13       
                      -7.2022410893318348e-17                          78                                          1826.8449350143969                  -4.2300783528240447e-08                -8.7996535720174023e-22             6.5717619284240138e-23           0.17079939252887322                  0.17079939252887322                    0.17079939252887322             -1.6716871997586322e-17     -6.6934074968644311e-17  100.00499987500626   100.00000000000001   1                    0                    1.1628470355293009e-17    17                            2                           5                     0.99504894522496479  0.099383704652791297  0.00023178283371272235        2.0771147212560506e-14              1.5830418245361005e-13       
                      -8.5409225887047201e-17                          79                                          1841.3095644601592                  -4.4971992317337166e-08                -1.3386814993728863e-17             6.5717619284240138e-23           0.17079939252887322                  0.17079939252887322                    0.17079939252887322             -1.6716871997586322e-17     -8.0320889962373175e-17  120.00599985000751   120.00000000000001   1.2000000000000002   0                    1.1628470355293009e-17    18                            0                           6                     0.99504894522496479  0.099383704652791297  0.00023178283371272235        0                                1.5830418245361005e-13       
                      -8.5409457829936787e-17                          85                                          1840.7619119518677                  -4.4939320040476077e-08                -2.3194288958292481e-22             6.9998990934740182e-23           0.17628461337655407                  0.17628461337655407                    0.17628461337655407             -1.6716884008744079e-17     -8.0320934735071119e-17  120.00599985000751   120.00000000000001   1.2000000000000002   0                    1.1628290914887473e-17    19                            1                           6                     0.99504956408876599  0.099377339971502388  0.00024380253935065652        5.1593714513644199e-15              1.6346355390497447e-13       
                      -8.5410383922903996e-17                          91                                          1838.5445187677076                  -4.4809546816239815e-08                -9.260929672081637e-22             8.8424987372221762e-23           0.19817235822940757                  0.19817235822940757                    0.19817235822940757             -1.6716932231080628e-17     -8.0321114404510942e-17  120.00599985000751   120.00000000000001   1.2000000000000002   0                    1.1627574287700204e-17    20                            2                           6                     0.99505204820743631  0.099351732469336693  0.00029179198850886402        2.063748580545768e-14              1.8410103971043214e-13       
# Table End
