# ODT 1.0
# Table Start
# Title: mmArchive Data Table, Thu Aug 24 23:08:04 EDT 2023
# Columns: {Oxs_RungeKuttaEvolve:evolve:Total energy} {Oxs_RungeKuttaEvolve:evolve:Energy calc count} {Oxs_RungeKuttaEvolve:evolve:Max dm/dt} Oxs_RungeKuttaEvolve:evolve:dE/dt {Oxs_RungeKuttaEvolve:evolve:Delta E} Oxs_CubicAnisotropy::Energy Oxs_UniformExchange::Energy {Oxs_UniformExchange::Max Spin Ang} {Oxs_UniformExchange::Stage Max Spin Ang} {Oxs_UniformExchange::Run Max Spin Ang} Oxs_ScriptUZeeman:rotating:Energy Oxs_ScriptUZeeman:rotating:B Oxs_ScriptUZeeman:rotating:Bx Oxs_ScriptUZeeman:rotating:By Oxs_ScriptUZeeman:rotating:Bz Oxs_Demag::Energy    Oxs_TimeDriver::Iteration {Oxs_TimeDriver::Stage iteration} Oxs_TimeDriver::Stage Oxs_TimeDriver::mx   Oxs_TimeDriver::my   Oxs_TimeDriver::mz   {Oxs_TimeDriver::Last time step} {Oxs_TimeDriver::Simulation time}
# Units:                       J                                            {}                                        deg/ns                                 J/s                                  J                                J                           J                              deg                                    deg                                      deg                                   J                              mT                           mT                            mT                            mT                       J                       {}                            {}                          {}                   {}                   {}                   {}                          s                                 s                
                       1.7697396883632856e-17                          1                                           4721.3748449676968                  -4.9820903198037175e-08                 0                                0                           0                               0                                      0                                        0                                    0                               75                           0                             75                            0                         1.7697396883632856e-17    0                             0                           0                     1                    0                    0                          0                                0                         
                       1.7697296644051935e-17                          7                                           4722.0379118575856                  -4.9814598343435772e-08                -1.0023958092145769e-22              1.0019949780029101e-26         2.169731586839076e-25             0.011256216258588737                    0.011256216258588737                      0.011256216258588737                 -3.3610545892783923e-23             75                           0                             75                            0                         1.7697330027604717e-17    1                             1                           0                     0.99999999895625513  2.636121246492857e-06 -2.6288240838998999e-05        2.0121257709765678e-15              2.0121257709765678e-15       
                       1.7696895812723431e-17                          13                                          4724.6799941396212                  -4.97893347089774e-08                -4.008313285021523e-22              2.5043504035846353e-25         5.4217048152259791e-24             0.056267211857411889                    0.056267211857411889                      0.056267211857411889                 -1.698942256667255e-22             75                           0                             75                            0                         1.7697060034809242e-17    2                             2                           0                     0.99999997391300932  1.3325037307194147e-05 -0.00013142622684860647        8.0485030839062711e-15              1.006062885488284e-14       
                       1.7695294529177499e-17                          19                                          4735.0859191317377                  -4.9687585250366486e-08                -1.6012835459347664e-21              4.4131042094615097e-24         9.5449141795402968e-23             0.23608276151722282                    0.23608276151722282                      0.23608276151722282                 -7.4448000383239057e-22             75                           0                             75                            0                         1.7695939146935324e-17    3                             3                           0                     0.99999954029977534  5.8390588535873832e-05 -0.00055173814906733331        3.2194012335625085e-14              4.2254641190507927e-14       
                       1.7688922656995317e-17                          25                                          4774.1487327333507                  -4.9270336715701771e-08                -6.3718721821796752e-21              7.1982095168790509e-23         1.5501495977088787e-21             0.95127642644826016                    0.95127642644826016                      0.95127642644826016                 -3.5132117062972025e-21             75                           0                             75                            0                         1.7690813737008739e-17    4                             4                           0                     0.99999250136940898  0.0002755460161801727 -0.0022291209714723954        1.2877604934250034e-13              1.7103069053300827e-13       
                       1.7688922656995317e-17                          26                                          4774.1487327333507                  -4.9270336715701771e-08                 0                                7.1982095168790509e-23         1.5501495977088787e-21             0.95127642644826016                    0.95127642644826016                      0.95127642644826016                 -3.5132117062972025e-21             75                           0                             75                            0                         1.7690813737008739e-17    5                             0                           1                     0.99999250136940898  0.0002755460161801727 -0.0022291209714723954        0                                1.7103069053300827e-13       
                       1.7663993977057824e-17                          32                                          4892.2144108742477                  -4.7507772415270381e-08                -2.49286799374941e-20              1.1334677043954005e-21         2.3788636844484577e-20             3.7215892734392995                     3.7215892734392995                       3.7215892734392995                  -2.2060301178549105e-20             75                           0                             75                            0                         1.7661132173687495e-17    6                             1                           1                     0.99988181009500832  0.0017302197002783612 -0.0088752635712413611        5.1510419737000135e-13              6.8613488790300964e-13       
                       1.75882599045871e-17                          38                                          4982.7541057592416                  -4.4347377700936471e-08                -7.573407247072389e-20              1.210800117427139e-20         2.118182451101508e-19             10.960199271965383                     10.960199271965383                       10.960199271965383                  -1.6245550735438607e-19             75                           0                             75                            0                         1.7526789165657064e-17    7                             2                           1                     0.99872634769034019  0.012741608419951846 -0.029691890070810131        1.6719386046618846e-12              2.3580734925648942e-12       
                       1.7501392404293191e-17                          44                                          4874.0587253733702                  -5.3470559178025737e-08                -8.6867500293907812e-20              3.44526075415326e-20         4.0990716335644355e-19             14.829240183249061                     14.829240183249061                       14.829240183249061                  -4.4809584516389595e-19             75                           0                             75                            0                         1.7505128478559112e-17    8                             3                           1                     0.9963203136284845   0.035144772169717314 -0.050926325199078297        1.8247024114059029e-12              4.1827759039707967e-12       
                       1.7378631291728639e-17                          50                                          4911.9554747036236                  -7.5280254344133662e-08                -1.2276111256455507e-19              7.1775428808025169e-20         4.7247350214126974e-19             15.358061018425236                     15.358061018425236                       15.358061018425236                  -8.8518101709315842e-19             75                           0                             75                            0                         1.77195633778725e-17    9                             4                           1                     0.99218571428044833  0.069425962124953638 -0.071404440263184044        1.9244503194987474e-12              6.1072262234695441e-12       
                       1.7378631291728639e-17                          51                                          4911.9554747036236                  -7.5280254344133662e-08                 0                                7.1775428808025169e-20         4.7247350214126974e-19             15.358061018425236                     15.358061018425236                       15.358061018425236                  -8.8518101709315842e-19             75                           0                             75                            0                         1.77195633778725e-17    10                            0                           2                     0.99218571428044833  0.069425962124953638 -0.071404440263184044        0                                6.1072262234695441e-12       
                       1.7216214247602017e-17                          57                                          4635.5678803528217                  -9.7255269512385982e-08                -1.6241704412661868e-19              1.3043200344071484e-19         4.5827454996481657e-19             14.387646419756814                     15.358061018425236                       15.358061018425236                  -1.4282250027544141e-18             75                           0                             75                            0                         1.8055732696950901e-17    11                            1                           2                     0.98549660648198267  0.11201764727485602 -0.089298570118660311        1.8770208363519913e-12              7.9842470598215358e-12       
                       1.7008109642088605e-17                          63                                          4924.2289577610254                  -1.1735103708039394e-07                -2.0810460551341449e-19              2.2173417873459999e-19         4.3293612172740207e-19             12.558665409183762                     15.358061018425236                       15.358061018425236                  -2.0887898737933064e-18             75                           0                             75                            0                         1.844222921541991e-17    12                            2                           2                     0.97457965578500061  0.1638266567681024  -0.10558245624597909        1.9393757914198919e-12              9.9236228512414274e-12       
                       1.6743102868333388e-17                          69                                          6033.7351279888862                  -1.4125439969109193e-07                -2.650067737552167e-19              3.5355802584108085e-19         3.983055843077045e-19             10.629729276270941                     15.358061018425236                       15.358061018425236                  -2.8727018875901636e-18             75                           0                             75                            0                         1.8863941145774766e-17    13                            3                           2                     0.95738638994809633  0.22530995196785575 -0.12053025421463288        2.055551930251102e-12              1.1979174781492529e-11       
                       1.640664564160026e-17                          75                                          6924.5647632747568                  -1.6841159866161355e-07                -3.3645722673312704e-19              5.2326360808496654e-19         4.2786348189570656e-19             11.967732641219872                     15.358061018425236                       15.358061018425236                  -3.7621907900720734e-18             75                           0                             75                            0                         1.9217709341691661e-17    14                            4                           2                     0.93160823967199458  0.29507378745663321 -0.13397336326940754        2.1714000347642793e-12              1.4150574816256808e-11       
                       1.640664564160026e-17                          76                                          6924.5647632747568                  -1.6841159866161355e-07                 0                                5.2326360808496654e-19         4.2786348189570656e-19             11.967732641219872                     11.967732641219872                       15.358061018425236                  -3.7621907900720734e-18             75                           0                             75                            0                         1.9217709341691661e-17    15                            0                           3                     0.93160823967199458  0.29507378745663321 -0.13397336326940754        0                                1.4150574816256808e-11       
                       1.5999293663734281e-17                          82                                          6969.9074555069965                  -1.9264603165623472e-07                -4.0735197786597883e-19              7.0809845003401872e-19         6.2738832833849682e-19             13.287461834510738                     13.287461834510738                       15.358061018425236                  -4.7161470473280822e-18             75                           0                             75                            0                         1.9379953932689846e-17    16                            1                           3                     0.89542571177888741  0.36989388606494744 -0.14546318216945522        2.2522716935129789e-12              1.6402846509769786e-11       
                       1.5531807854090588e-17                          88                                          6714.514730090933                   -2.1634982172591133e-07                -4.6748580964369452e-19              8.6923046822352266e-19         9.2591395159165409e-19             13.579506963074243                     13.579506963074243                       15.358061018425236                  -5.6847421550523648e-18             75                           0                             75                            0                         1.9421405589327774e-17    17                            2                           3                     0.84850969729520309  0.44586212980802792 -0.15432112961459216        2.2886152335437402e-12              1.8691461743313525e-11       
                       1.5066431847842661e-17                          100                                         7352.2747565254413                  -2.394513976667814e-07                -4.6537600624792552e-19              9.6507252939359011e-19         1.1590959199514689e-18             13.775410313668784                     13.775410313668784                       15.358061018425236                  -6.5234949927768476e-18             75                           0                             75                            0                         1.946575839127445e-17    18                            3                           3                     0.79840141152421529  0.51164666610014475 -0.15934811621460893        2.0423649076584042e-12              2.073382665097193e-11       
                       1.45947160105416e-17                          106                                         7276.9576457087824                  -2.5817593824868234e-07                -4.7171583730106237e-19              1.0041476101376415e-18         1.3343564227111917e-18             14.612590458198605                     14.612590458198605                       15.358061018425236                  -7.2595743892554125e-18             75                           0                             75                            0                         1.9515786366948178e-17    19                            4                           3                     0.74575886361215238  0.56937838347101222 -0.16109262493176726        1.8925141448996019e-12              2.2626340795871533e-11       
                       1.45947160105416e-17                          107                                         7276.9576457087824                  -2.5817593824868234e-07                 0                                1.0041476101376415e-18         1.3343564227111917e-18             14.612590458198605                     14.612590458198605                       15.358061018425236                  -7.2595743892554125e-18             75                           0                             75                            0                         1.9515786366948178e-17    20                            0                           4                     0.74575886361215238  0.56937838347101222 -0.16109262493176726        0                                2.2626340795871533e-11       
                       1.4106537926086144e-17                          113                                         6748.9079212981696                  -2.6965854558918295e-07                -4.8817808445545399e-19              9.9980061682088382e-19         1.4897454630436465e-18             16.06935906135741                      16.06935906135741                        16.06935906135741                   -7.9234405421762665e-18             75                           0                             75                            0                         1.9540432388397883e-17    21                            1                           4                     0.68991511677739226  0.62144631703343323 -0.15972597729606999        1.8453284761375544e-12              2.4471669272009088e-11       
                       1.3609458438349238e-17                          119                                         6614.4112071327027                  -2.7318274170727823e-07                -4.9707948773690814e-19              9.6618160837364461e-19         1.6410911188496168e-18             17.490988838659639                     17.490988838659639                       17.490988838659639                  -8.5169584097230704e-18             75                          -75                            0                             0                         1.9519144120849047e-17    22                            2                           4                     0.63202934331117488  0.66799673801749571 -0.15525821152642075        1.8270922794825997e-12              2.6298761551491688e-11       
                       3.0184790975289758e-17                          257                                         6227.6184759184962                  -2.3222048471253177e-07                 1.6575332536940518e-17              9.6618160837364191e-19         1.6410911188496278e-18             17.490988838659739                     17.490988838659739                       17.490988838659739                   8.0583741272174294e-18             75                          -75                            0                             0                         1.9519144120849056e-17    23                            3                           4                     0.632029343311171    0.66799673801749837 -0.1552582115264203         1.230981825829996e-25              2.629876155149181e-11       
                       3.0184790975289721e-17                          263                                         6227.6184759185353                  -2.3222048471253219e-07                -3.043714968953282e-32              9.6618160837363921e-19         1.6410911188496394e-18             17.490988838659849                     17.490988838659849                       17.490988838659849                   8.0583741272173785e-18             75                          -75                            0                             0                         1.9519144120849065e-17    24                            4                           4                     0.63202934331116722  0.66799673801750103 -0.15525821152641991        1.3074371874307421e-25              2.6298761551491943e-11       
                       3.0184790975289721e-17                          264                                         6227.6184759185353                  -2.3222048471253219e-07                 0                                9.6618160837363921e-19         1.6410911188496394e-18             17.490988838659849                     17.490988838659849                       17.490988838659849                   8.0583741272173785e-18             75                          -75                            0                             0                         1.9519144120849065e-17    25                            0                           5                     0.63202934331116722  0.66799673801750103 -0.15525821152641991        0                                2.6298761551491943e-11       
                       3.0184790975289603e-17                          270                                         6227.6184759186799                  -2.3222048471253392e-07                -1.2146665540058168e-31              9.6618160837362862e-19         1.6410911188496862e-18             17.490988838660261                     17.490988838660261                       17.490988838660261                   8.0583741272171767e-18             75                          -75                            0                             0                         1.9519144120849112e-17    26                            1                           5                     0.63202934331115102  0.66799673801751258 -0.15525821152641864        5.2297487497229684e-25              2.6298761551492466e-11       
                       3.0184790975289117e-17                          276                                         6227.6184759192747                  -2.3222048471254077e-07                -4.8605033953208485e-31              9.6618160837358587e-19         1.6410911188498732e-18             17.490988838661934                     17.490988838661934                       17.490988838661934                   8.0583741272163724e-18             75                          -75                            0                             0                         1.9519144120849284e-17    27                            2                           5                     0.63202934331108773  0.66799673801755777 -0.15525821152641331        2.0918994998891874e-24              2.6298761551494557e-11       
                       3.0184790975287169e-17                          282                                         6227.6184759216494                  -2.3222048471256841e-07                -1.9428807718213649e-30              9.6618160837341465e-19         1.6410911188506204e-18             17.490988838668624                     17.490988838668624                       17.490988838668624                   8.0583741272131523e-18             75                          -75                            0                             0                         1.9519144120849987e-17    28                            3                           5                     0.63202934331083527  0.66799673801774095 -0.15525821152639213        8.3675979995567495e-24              2.6298761551502926e-11       
                       3.0184790975279404e-17                          288                                         6227.6184759311491                  -2.3222048471267865e-07                -7.7722361311316502e-30              9.6618160837272979e-19         1.6410911188536105e-18             17.490988838695365                     17.490988838695365                       17.490988838695365                   8.0583741272002686e-18             75                          -75                            0                             0                         1.9519144120852791e-17    29                            4                           5                     0.63202934330982441  0.66799673801847059 -0.15525821152630656        3.3470391998226998e-23              2.6298761551536394e-11       
                       3.0184790975279404e-17                          289                                         6227.6184759311491                  -2.3222048471267865e-07                 0                                9.6618160837272979e-19         1.6410911188536105e-18             17.490988838695365                     17.490988838695365                       17.490988838695365                   8.0583741272002686e-18             75                          -75                            0                             0                         1.9519144120852791e-17    30                            0                           6                     0.63202934330982441  0.66799673801847059 -0.15525821152630656        0                                2.6298761551536394e-11       
                       3.0184790975248312e-17                          295                                         6227.6184759691478                  -2.3222048471311982e-07                -3.109008866886143e-29              9.6618160836999112e-19         1.6410911188655703e-18             17.490988838802338                     17.490988838802338                       17.490988838802338                   8.0583741271487415e-18             75                          -75                            0                             0                         1.9519144120864008e-17    31                            1                           6                     0.63202934330578342  0.66799673802139103 -0.15525821152596467        1.3388156799290799e-22              2.6298761551670275e-11       
                       3.0184790975123949e-17                          301                                         6227.6184761211352                  -2.3222048471488448e-07                -1.2436000906745904e-28              9.6618160835903566e-19         1.6410911189134088e-18             17.490988839230241                     17.490988839230241                       17.490988839230241                   8.0583741269426285e-18             75                          -75                            0                             0                         1.9519144120908877e-17    32                            2                           6                     0.63202934328961768  0.66799673803307247 -0.15525821152459726        5.3552627197163197e-22              2.6298761552205803e-11       
                       3.018479097462651e-17                          307                                         6227.6184767290924                  -2.322204847219431e-07                -4.9744091847969691e-28              9.6618160831521401e-19         1.641091119104764e-18             17.490988840941835                     17.490988840941835                       17.490988840941835                   8.058374126118181e-18             75                          -75                            0                             0                         1.9519144121088349e-17    33                            3                           6                     0.63202934322495474  0.66799673807979698 -0.15525821151912741        2.1421050878865279e-21              2.6298761554347907e-11       
                       3.0184790972636744e-17                          313                                         6227.6184791609221                  -2.3222048475017759e-07                -1.989762669836637e-27              9.6618160813992762e-19         1.6410911198701843e-18             17.49098884778822                      17.49098884778822                        17.49098884778822                    8.0583741228203865e-18             75                          -75                            0                             0                         1.9519144121806249e-17    34                            4                           6                     0.63202934296630464  0.66799673826669625 -0.15525821149724914        8.5684203515461114e-21              2.6298761562916328e-11       
# Table End
