# ODT 1.0
# Table Start
# Title: mmArchive Data Table, Wed Jun 16 18:45:54 EDT 2010
# Columns: {Oxs_RungeKuttaEvolve:evolve:Total energy} {Oxs_RungeKuttaEvolve:evolve:Energy calc count} {Oxs_RungeKuttaEvolve:evolve:Max dm/dt} Oxs_RungeKuttaEvolve:evolve:dE/dt {Oxs_RungeKuttaEvolve:evolve:Delta E} Oxs_Exchange6Ngbr::Energy {Oxs_Exchange6Ngbr::Max Spin Ang} {Oxs_Exchange6Ngbr::Stage Max Spin Ang} {Oxs_Exchange6Ngbr::Run Max Spin Ang} Oxs_FixedZeeman:Bias:Energy Oxs_TwoSurfaceExchange:AF:Energy Oxs_UZeeman::Energy  Oxs_UZeeman::B       Oxs_UZeeman::Bx      Oxs_UZeeman::By      Oxs_UZeeman::Bz      Oxs_Demag::Energy    Oxs_TimeDriver::Iteration {Oxs_TimeDriver::Stage iteration} Oxs_TimeDriver::Stage Oxs_TimeDriver::mx   Oxs_TimeDriver::my   Oxs_TimeDriver::mz   {Oxs_TimeDriver::Last time step} {Oxs_TimeDriver::Simulation time}
# Units:                       J                                            {}                                        deg/ns                                 J/s                                  J                               J                            deg                                  deg                                    deg                               J                             J                          J                 mT                   mT                   mT                   mT                     J                       {}                            {}                          {}                   {}                   {}                   {}                          s                                 s                
                      -5.0827720818146398e-18                          1                                           1779.2705928064224                  -3.4373029895328515e-08                 0                               0                             0                                    0                                      0                               -1.6716624795527818e-17            0                          0                    0                    0                    0                    0                    1.1633852713713178e-17    0                             0                           0                     0.99503719020998915  0.099503719020998901  0                          0                                0                         
                      -5.0829555304728216e-18                          7                                           1779.1438558766533                  -3.4343781082735226e-08                -1.8344865818163172e-22             7.6971982263819033e-26           0.0058327658509307089                  0.0058327658509307089                    0.0058327658509307089             -1.6716630162950064e-17           -9.8561981403272643e-27        0                    0                    0                    0                    0                    1.1633674565361458e-17    1                             1                           0                     0.99503741657954725  0.099501452748108996  4.5479385748546051e-06        5.3392665727227932e-15              5.3392665727227932e-15       
                      -5.0836877684180236e-18                          13                                          1778.5968129540818                  -3.4227407846708104e-08                -7.3223794520169041e-22             1.9169372685737254e-24           0.029119078507030199                  0.029119078507030199                    0.029119078507030199             -1.6716651675089744e-17           -2.458516243128741e-25        0                    0                    0                    0                    0                    1.1632962235586077e-17    2                             2                           0                     0.99503832243007539  0.099492332496925198  2.2706460119690052e-05        2.1357066290891173e-14              2.6696332863613964e-14       
                      -1.8470374591365825e-17                          14                                          1779.8453449059023                  -3.5401594166960158e-08                -1.3386686822947801e-17             1.9169372685737254e-24           0.029119078507030199                  0.029119078507030199                    0.029119078507030199             -1.6716651675089744e-17           -2.458516243128741e-25       -1.3386686822947801e-17  20.00099997500125    20                   0.20000000000000001  0                    1.1632962235586077e-17    3                             0                           1                     0.99503832243007539  0.099492332496925198  2.2706460119690052e-05        0                                2.6696332863613964e-14       
                      -1.8470563469682155e-17                          20                                          1779.5080616999219                  -3.5371930909670185e-08                -1.8887831633156752e-22             2.757407554880732e-24           0.034927208852775303                  0.034927208852775303                    0.034927208852775303             -1.671665818767741e-17           -3.5378459002370129e-25       -1.3386690369195612e-17  20.00099997500125    20                   0.20000000000000001  0                    1.1632782683567902e-17    4                             1                           1                     0.99503861592448306  0.099489368828559951  2.858112708175087e-05        5.337542403439693e-15              3.2033875267053656e-14       
                      -1.8471317404912211e-17                          26                                          1778.1251661843642                  -3.5253933677128105e-08                -7.5393523005602447e-22             7.6280997536642423e-24           0.058113134517933505                  0.058113134517933505                    0.058113134517933505             -1.6716684305788191e-17           -9.8027689917222209e-25       -1.3386704570191292e-17  20.00099997500125    20                   0.20000000000000001  0                    1.1632064823244416e-17    5                             2                           1                     0.99503979181225299  0.099477442221795942  5.2037139711218834e-05        2.1350169613758772e-14              5.3384044880812432e-14       
                      -3.1858021975103503e-17                          27                                          1792.9539081395931                  -3.6728200411872551e-08                -1.3386704570191292e-17             7.6280997536642423e-24           0.058113134517933505                  0.058113134517933505                    0.058113134517933505             -1.6716684305788191e-17           -9.8027689917222209e-25       -2.6773409140382583e-17  40.001999950002499   40                   0.40000000000000002  0                    1.1632064823244416e-17    6                             0                           2                     0.99503979181225299  0.099477442221795942  5.2037139711218834e-05        0                                5.3384044880812432e-14       
                      -3.1858216500933747e-17                          33                                          1792.582874722267                   -3.6698305329161017e-08                -1.945258302428386e-22             9.2084434880322838e-24           0.063855097410124101                  0.063855097410124101                    0.063855097410124101             -1.671669192142314e-17           -1.183836532101874e-24       -2.6773417805501623e-17  40.001999950002499   40                   0.40000000000000002  0                    1.1631885201384062e-17    7                             1                           2                     0.99504015061193718  0.099473798559341658  5.9182220722812156e-05        5.2985188056827404e-15              5.8682563686495179e-14       
                      -3.1858993025740139e-17                          39                                          1791.066423623138                   -3.657941432500754e-08                -7.7652480639356511e-22             1.6994483766982769e-23           0.086775226816681678                  0.086775226816681678                    0.086775226816681678             -1.6716722475328285e-17           -2.1883114142109269e-24       -2.6773452533173335e-17  40.001999950002499   40                   0.40000000000000002  0                    1.1631167176589128e-17    8                             2                           2                     0.99504158918723029  0.099459136237284307  8.7710826962202938e-05        2.1194075222730961e-14              7.9876638909226131e-14       
                      -4.5245719292326806e-17                          40                                          1805.8035681934728                  -3.8353484406341069e-08                -1.3386726266586668e-17             1.6994483766982769e-23           0.086775226816681678                  0.086775226816681678                    0.086775226816681678             -1.6716722475328285e-17           -2.1883114142109269e-24       -4.0160178799760003e-17  60.002999925003756   60.000000000000007   0.60000000000000009  0                    1.1631167176589128e-17    9                             0                           3                     0.99504158918723029  0.099459136237284307  8.7710826962202938e-05        0                                7.9876638909226131e-14       
                      -4.5245920983570065e-17                          46                                          1805.3996683696969                  -3.8323320815142873e-08                -2.0169124326001227e-22             1.9287754082013766e-23           0.092451862888851738                  0.092451862888851738                    0.092451862888851738             -1.6716731190746843e-17           -2.4845985863953323e-24       -4.0160194149647108e-17  60.002999925003756   60.000000000000007   0.60000000000000009  0                    1.1630987553668389e-17    10                            1                           3                     0.99504201311749163  0.099454813367661224  9.6103884638062536e-05        5.2608158314272278e-15              8.5137454740653358e-14       
                      -4.5246726167467905e-17                          52                                          1803.7531609177379                  -3.820339790745534e-08                -8.0518389783555783e-22             2.9882771416691685e-23           0.11510962809234881                  0.11510962809234881                    0.11510962809234881             -1.6716766166354431e-17           -3.8556025084016148e-24       -4.0160255700317289e-17  60.002999925003756   60.000000000000007   0.60000000000000009  0                    1.1630269672034909e-17    11                            2                           3                     0.99504371361850941  0.099437418697881599  0.00012961521041351243        2.1043263325708911e-14              1.0618071806636228e-13       
                      -5.8633478067573668e-17                          53                                          1818.3990724529999                  -4.0276930419948494e-08                -1.3386751900105763e-17             2.9882771416691685e-23           0.11510962809234881                  0.11510962809234881                    0.11510962809234881             -1.6716766166354431e-17           -3.8556025084016148e-24       -5.3547007600423052e-17  80.003999900004999   80                   0.80000000000000004  0                    1.1630269672034909e-17    12                            0                           4                     0.99504371361850941  0.099437418697881599  0.00012961521041351243        0                                1.0618071806636228e-13       
                      -5.863368840975414e-17                          59                                          1817.9631558967073                  -4.0246456512737314e-08                -2.1034218047047388e-22             3.2863120475448452e-23           0.12072174967215503                  0.12072174967215503                    0.12072174967215503             -1.6716775978392252e-17           -4.2418363983456968e-24       -5.3547031194357345e-17  80.003999900004999   80                   0.80000000000000004  0                    1.1630090141711387e-17    13                            1                           4                     0.99504420251024739  0.099432417050672697  0.00013923457222189746        5.224375740130909e-15              1.1140509380649318e-13       
                      -5.8634528192536713e-17                          65                                          1816.1899561136438                  -4.0125342867635363e-08                -8.3978278258214116e-22             4.6165064767863481e-23           0.14312046518966701                  0.14312046518966701                    0.14312046518966701             -1.6716815362053808e-17           -5.9683807462895024e-24       -5.3547125835572197e-17  80.003999900004999   80                   0.80000000000000004  0                    1.1629372808405266e-17    14                            2                           4                     0.99504616420041192  0.0994122919606584   0.00017764180186788262        2.0897502960523636e-14              1.3230259676701682e-13       
                      -7.2021309651429762e-17                          66                                          1830.74498731515                    -4.2497933989994231e-08                -1.3386781458893049e-17             4.6165064767863481e-23           0.14312046518966701                  0.14312046518966701                    0.14312046518966701             -1.6716815362053808e-17           -5.9683807462895024e-24       -6.6933907294465246e-17  100.00499987500626   100.00000000000001   1                    0                    1.1629372808405266e-17    15                            0                           5                     0.99504616420041192  0.0994122919606584   0.00017764180186788262        0                                1.3230259676701682e-13       
                      -7.2021530099314105e-17                          72                                          1830.2778713682733                  -4.2467103049975058e-08                -2.2044788433339338e-22             4.9807675146451239e-23           0.14866885771462984                  0.14866885771462984                    0.14866885771462984             -1.6716826267637474e-17           -6.4418910899786413e-24       -6.6933940685197732e-17  100.00499987500626   100.00000000000001   1                    0                    1.1629193487737044e-17    16                            1                           5                     0.9950467178896526   0.099406611626589175  0.00018846650991993129        5.189144346057762e-15              1.3749174111307458e-13       
                      -7.2022410297537793e-17                          78                                          1828.3812151903908                  -4.2344620000263445e-08                -8.8019822368718088e-22             6.5718548046331056e-23           0.17081172651298732                  0.17081172651298732                    0.17081172651298732             -1.6716870046110975e-17           -8.5134217682923891e-24       -6.6934074656218143e-17  100.00499987500626   100.00000000000001   1                    0                    1.1628477199665049e-17    17                            2                           5                     0.99504894005550792  0.099383756678566929  0.00023168568525650006        2.0756577384231048e-14              1.5824831849730563e-13       
                      -8.5409225228781417e-17                          79                                          1842.8457080388514                  -4.5015803902507032e-08                -1.3386814931243628e-17             6.5718548046331056e-23           0.17081172651298732                  0.17081172651298732                    0.17081172651298732             -1.6716870046110975e-17           -8.5134217682923891e-24       -8.0320889587461767e-17  120.00599985000751   120.00000000000001   1.2000000000000002   0                    1.1628477199665049e-17    18                            0                           6                     0.99504894005550792  0.099383756678566929  0.00023168568525650006        0                                1.5824831849730563e-13       
                      -8.5409457207875504e-17                          85                                          1842.34817938017                    -4.4984564504600921e-08                -2.3197909408927693e-22             6.9999569485666736e-23           0.17629714985267658                  0.17629714985267658                    0.17629714985267658             -1.6716882042250025e-17           -9.0716417205221669e-24       -8.0320934321286334e-17  120.00599985000751   120.00000000000001   1.2000000000000002   0                    1.1628298227733089e-17    19                            1                           6                     0.99504955838295439  0.099377397426685304  0.00024369544975943796        5.1550707465954162e-15              1.6340338924390105e-13       
                      -8.5410383520860716e-17                          91                                          1840.3311812663312                  -4.486051436036409e-08                -9.2631298521242248e-22             8.8425176237688561e-23           0.19818726893373451                  0.19818726893373451                    0.19818726893373451             -1.6716930202664827e-17           -1.1478011141132516e-23       -8.0321113833492657e-17  120.00599985000751   120.00000000000001   1.2000000000000002   0                    1.1627583568131674e-17    20                            2                           6                     0.99505204033217809  0.099351811887172348  0.00029164528383172276        2.0620282986381665e-14              1.8402367223028271e-13       
# Table End
