# ODT 1.0
# Table Start
# Title: mmArchive Data Table, Wed Jun 11 15:41:26 EDT 2014
# Columns: {Oxs_RungeKuttaEvolve:evolve:Total energy} {Oxs_RungeKuttaEvolve:evolve:Energy calc count} {Oxs_RungeKuttaEvolve:evolve:Max dm/dt} Oxs_RungeKuttaEvolve:evolve:dE/dt {Oxs_RungeKuttaEvolve:evolve:Delta E} Oxs_Exchange6Ngbr::Energy {Oxs_Exchange6Ngbr::Max Spin Ang} {Oxs_Exchange6Ngbr::Stage Max Spin Ang} {Oxs_Exchange6Ngbr::Run Max Spin Ang} Oxs_FixedZeeman:Bias:Energy Oxs_UZeeman::Energy  Oxs_UZeeman::B       Oxs_UZeeman::Bx      Oxs_UZeeman::By      Oxs_UZeeman::Bz      Oxs_Demag::Energy    Oxs_TimeDriver::Iteration {Oxs_TimeDriver::Stage iteration} Oxs_TimeDriver::Stage Oxs_TimeDriver::mx   Oxs_TimeDriver::my   Oxs_TimeDriver::mz   {Oxs_TimeDriver::Last time step} {Oxs_TimeDriver::Simulation time}
# Units:                       J                                            {}                                        deg/ns                                 J/s                                  J                               J                            deg                                  deg                                    deg                               J                       J                 mT                   mT                   mT                   mT                     J                       {}                            {}                          {}                   {}                   {}                   {}                          s                                 s                
                      -5.0827738577238012e-18                          1                                           1779.2705928055548                  -3.4373030108780195e-08                 0                               0                             0                                    0                                      0                               -1.6716626571447788e-17      0                    0                    0                    0                    0                    1.1633852713723987e-17    0                             0                           0                     0.99503719020998915  0.099503719020998901  0                          0                                0                         
                      -5.0829573024387686e-18                          7                                           1779.0804568662811                  -3.4342303871742081e-08                -1.8344471496807059e-22             7.6970179391795608e-26           0.0058326830308183704                  0.0058326830308183704                    0.0058326830308183704             -1.6716631938954818e-17      0                    0                    0                    0                    0                    1.1633674559545869e-17    1                             1                           0                     0.99503741657956257  0.099501452748010977  4.547938772912831e-06        5.3392665727253972e-15              5.3392665727253972e-15       
                      -5.0836894457585835e-18                          13                                          1778.2801134676129                  -3.4220024827903065e-08                -7.3214331981506535e-22             1.9167121061528849e-24           0.02911701165492632                  0.02911701165492632                    0.02911701165492632             -1.6716653453111223e-17      0                    0                    0                    0                    0                    1.1632962090640534e-17    2                             2                           0                     0.99503832243080637  0.099492332496544392  2.2706461050898254e-05        2.1357066290901589e-14              2.6696332863626984e-14       
                      -5.0865922221101076e-18                          19                                          1774.4585921097234                  -3.3740821696732288e-08                -2.9027763515239805e-21             3.3280932306654672e-23           0.1214803481845719                   0.1214803481845719                     0.1214803481845719              -1.6716740217064269e-17      0                    0                    0                    0                    0                    1.1630114714021856e-17    3                             3                           0                     0.99504195206028989  0.099454974021713036  9.4809947843693649e-05        8.5428265163606355e-14              1.1212459802723333e-13       
                      -5.0978136465384885e-18                          25                                          1750.3201884770044                  -3.1976317955680321e-08                -1.1221424428381438e-20             5.1124194016950011e-22           0.47677136645142759                  0.47677136645142759                    0.47677136645142759             -1.6717098645621341e-17      0                    0                    0                    0                    0                    1.1618773757142683e-17    4                             4                           0                     0.99505658507667616  0.099291822405571092  0.00037480744487353569        3.4171306065442542e-13              4.5383765868165874e-13       
                      -1.8484718970900326e-17                          26                                          1738.7819120827169                  -3.3103946917683038e-08                -1.3386905324361838e-17             5.1124194016950011e-22           0.47677136645142759                  0.47677136645142759                    0.47677136645142759             -1.6717098645621341e-17     -1.3386905324361838e-17  20.00099997500125    20                   0.20000000000000001  0                    1.1618773757142683e-17    5                             0                           1                     0.99505658507667616  0.099291822405571092  0.00037480744487353569        0                                4.5383765868165874e-13       
                      -1.8484899763923075e-17                          32                                          1738.1531972219302                  -3.3077039748612743e-08                -1.8079302274782443e-22             5.2307129002862827e-22           0.48224496475272982                  0.48224496475272982                    0.48224496475272982             -1.6717105671756307e-17     -1.3386908943391489e-17  20.00099997500125    20                   0.20000000000000001  0                    1.1618591779934693e-17    6                             1                           1                     0.99505688908176704  0.099288349200433945  0.00038054660216020212        5.4635949074377467e-15              4.5930125358909648e-13       
                      -1.8485621470966591e-17                          38                                          1735.6155219617658                  -3.2970027045141207e-08                -7.2170704351494798e-22             5.7160554721034369e-22           0.50407044723970951                  0.50407044723970951                    0.50407044723970951             -1.6717133849256564e-17     -1.3386923438899294e-17  20.00099997500125    20                   0.20000000000000001  0                    1.1617864211642059e-17    7                             2                           1                     0.99505810725967381  0.099274384890450193  0.00040345938910380782        2.1854379629750987e-14              4.8115563321884742e-13       
                      -1.848848523248702e-17                          44                                          1725.1166224581445                  -3.2551723162030256e-08                -2.8637615204282965e-21             7.8472485639009779e-22           0.59025162810435794                  0.59025162810435794                    0.59025162810435794             -1.671724772356991e-17     -1.3386981732455611e-17  20.00099997500125    20                   0.20000000000000001  0                    1.1614959498682115e-17    8                             3                           1                     0.99506301452043866  0.099217390631802016  0.00049441087779945935        8.7417518519003946e-14              5.6857315173785141e-13       
                      -1.8499594358638517e-17                          50                                          1685.0830123019457                  -3.1027629813750418e-08                -1.1109126151500139e-20             1.9109455386235662e-21           0.91611242208991617                  0.91611242208991617                    0.91611242208991617             -1.6717721626965187e-17     -1.3387219951617532e-17  20.00099997500125    20                   0.20000000000000001  0                    1.1603436274405579e-17    9                             4                           1                     0.99508319654177391  0.098971652500674551  0.00084713961242186334        3.4967007407601579e-13              9.1824322581386714e-13       
                      -3.1886814310256053e-17                          51                                          1690.1571185092209                  -3.2409993996011727e-08                -1.3387219951617532e-17             1.9109455386235662e-21           0.91611242208991617                  0.91611242208991617                    0.91611242208991617             -1.6717721626965187e-17     -2.6774439903235065e-17  40.001999950002499   40                   0.40000000000000002  0                    1.1603436274405579e-17    10                            0                           2                     0.99508319654177391  0.098971652500674551  0.00084713961242186334        0                                9.1824322581386714e-13       
                      -3.1886996414705101e-17                          57                                          1689.3421684551477                  -3.2386885898702285e-08                -1.8210444904921779e-22             1.9322336773548417e-21           0.92108779468689528                  0.92108779468689528                    0.92108779468689528             -1.6717730654606143e-17     -2.6774449384818386e-17  40.001999950002499   40                   0.40000000000000002  0                    1.1603251391042074e-17    11                            1                           2                     0.9950835981992151   0.098966760504020881  0.00085406768276148246        5.620779213934465e-15              9.2386400502780162e-13       
                      -3.1887723538814481e-17                          63                                          1686.0711358342548                  -3.2295066077702396e-08                -7.2712410938012425e-22             2.0183044321179575e-21           0.94090627106493574                  0.94090627106493574                    0.94090627106493574             -1.6717766866587928e-17     -2.6774487392899998e-17  40.001999950002499   40                   0.40000000000000002  0                    1.160251241624133e-17    12                            2                           2                     0.9950852087614338   0.098947103395298636  0.00088172403561575076        2.248311685573786e-14              9.4634712188353955e-13       
                      -3.1890611718575286e-17                          69                                          1672.822216563439                   -3.193746378976255e-08                -2.8881797608041571e-21             2.3768322525561585e-21           1.018846928838276                    1.018846928838276                      1.018846928838276               -1.6717913328842915e-17     -2.6774640728900856e-17  40.001999950002499   40                   0.40000000000000002  0                    1.1599565506915931e-17    13                            3                           2                     0.99509171367996152  0.098867057974280345  0.00099145720866498574        8.993246742295144e-14              1.0362795893064908e-12       
                      -3.1901862903654377e-17                          75                                          1618.077592701846                   -3.0654095993297278e-08                -1.1251185079093714e-20             4.0118474729949268e-21           1.3091534208026101                   1.3091534208026101                     1.3091534208026101              -1.6718524444352467e-17     -2.6775274610450034e-17  40.001999950002499   40                   0.40000000000000002  0                    1.1587924303675126e-17    14                            4                           2                     0.99511871844218536  0.098524772039016897  0.0014162823987965431        3.5972986969180576e-13              1.3960094589982966e-12       
                      -4.5289500208879394e-17                          76                                          1628.1725140813332                  -3.2289869637302125e-08                -1.3387637305225017e-17             4.0118474729949268e-21           1.3091534208026101                   1.3091534208026101                     1.3091534208026101              -1.6718524444352467e-17     -4.016291191567505e-17  60.002999925003756   60.000000000000007   0.60000000000000009  0                    1.1587924303675126e-17    15                            0                           3                     0.99511871844218536  0.098524772039016897  0.0014162823987965431        0                                1.3960094589982966e-12       
                      -4.5289688556269899e-17                          82                                          1627.2515419090028                  -3.227057103699931e-08                -1.8834739050186213e-22             4.0406264661151401e-21           1.3135692577339142                   1.3135692577339142                     1.3135692577339142              -1.6718535889005252e-17     -4.0162930348544526e-17  60.002999925003756   60.000000000000007   0.60000000000000009  0                    1.1587737054813765e-17    16                            1                           3                     0.99511924144973762  0.098518187725931614  0.001424431794266815        5.8347625437960441e-15              1.4018442215420926e-12       
                      -4.5290440825196467e-17                          88                                          1623.5666884369575                  -3.2193992211321639e-08                -7.5226892657317918e-22             4.1563932484210543e-21           1.3311428081942298                   1.3311428081942298                     1.3311428081942298              -1.6718581798049876e-17     -4.0163004267855714e-17  60.002999925003756   60.000000000000007   0.60000000000000009  0                    1.1586988847460702e-17    17                            2                           3                     0.99512133923019752  0.09849174130493249  0.0014569589095881114        2.3339050175184177e-14              1.4251832717172769e-12       
                      -4.5293432368957536e-17                          94                                          1608.8236226365061                  -3.189738005434206e-08                -2.9915437610646083e-21             4.6294794758490496e-21           1.400007050835798                    1.400007050835798                      1.400007050835798               -1.6718767506037264e-17     -4.0163302930968184e-17  60.002999925003756   60.000000000000007   0.60000000000000009  0                    1.1584008588572069e-17    18                            3                           3                     0.99512982175501241  0.098384220749215517  0.0015859435208597458        9.3356200700736706e-14              1.5185394724180137e-12       
                      -4.5305142381752421e-17                          100                                         1550.4657856421759                  -3.0857070493770093e-08                -1.1710012794886147e-20             6.6586638003613339e-21           1.6531651191522585                   1.6531651191522585                     1.6531651191522585              -1.6719542491943271e-17     -4.0164544042455621e-17  60.002999925003756   60.000000000000007   0.60000000000000009  0                    1.1572285488846109e-17    19                            4                           3                     0.99516517420956641  0.097927128784470976  0.0020841321357911056        3.7342480280294683e-13              1.8919642752209602e-12       
                      -5.8693323729237628e-17                          101                                         1559.2410581316035                  -3.2742207580872662e-08                -1.3388181347485207e-17             6.6586638003613339e-21           1.6531651191522585                   1.6531651191522585                     1.6531651191522585              -1.6719542491943271e-17     -5.3552725389940828e-17  80.003999900004999   80                   0.80000000000000004  0                    1.1572285488846109e-17    20                            0                           4                     0.99516517420956641  0.097927128784470976  0.0020841321357911056        0                                1.8919642752209602e-12       
                      -5.8693523171320093e-17                          107                                         1558.2837770840069                  -3.2726915108165646e-08                -1.9944208246778057e-22             6.69319385573201e-21           1.6569947680606201                   1.6569947680606201                     1.6569947680606201              -1.6719556796036872e-17     -5.355275678635406e-17  80.003999900004999   80                   0.80000000000000004  0                    1.1572097217215103e-17    21                            1                           4                     0.995165844163025    0.097918534504891755  0.0020935184004237778        6.0927076993364922e-15              1.8980569829202967e-12       
                      -5.8694320013573175e-17                          113                                         1554.4620458944585                  -3.26663627142702e-08                -7.9684225307500454e-22             6.8317255860595188e-21           1.672223659308016                    1.672223659308016                      1.672223659308016               -1.6719614171705592e-17     -5.3552882709805355e-17  80.003999900004999   80                   0.80000000000000004  0                    1.1571345142351717e-17    22                            2                           4                     0.99516853157582907  0.097884025834781757  0.0021309756266262476        2.4370830797345969e-14              1.9224278137176428e-12       
                      -5.8697492981715267e-17                          119                                         1539.3011377782632                  -3.2433860197358253e-08                -3.1729681420987416e-21             7.3921050312996601e-21           1.7317204856106085                   1.7317204856106085                     1.7317204856106085              -1.6719846199258168e-17     -5.3553391760090738e-17  80.003999900004999   80                   0.80000000000000004  0                    1.156835287260234e-17    23                            3                           4                     0.99517940175662101  0.097743901887623261  0.0022794040834630078        9.7483323189383876e-14              2.0199111369070269e-12       
                      -5.8709979688666935e-17                          125                                         1481.0854946237798                  -3.1648452395235266e-08                -1.2486706951663155e-20             9.7142228398490376e-21           1.9481457117608902                   1.9481457117608902                     1.9481457117608902              -1.6720813158754519e-17     -5.3555510487672058e-17  80.003999900004999   80                   0.80000000000000004  0                    1.1556629734919796e-17    24                            4                           4                     0.99522474201259747  0.097150961820708912  0.0028510223633621996        3.899332927575355e-13              2.4098444296645622e-12       
                      -7.2098857310584943e-17                          126                                         1488.6795652948847                  -3.3775966119465633e-08                -1.3388877621918014e-17             9.7142228398490376e-21           1.9481457117608902                   1.9481457117608902                     1.9481457117608902              -1.6720813158754519e-17     -6.6944388109590066e-17  100.00499987500626   100.00000000000001   1                    0                    1.1556629734919796e-17    25                            0                           5                     0.99522474201259747  0.097150961820708912  0.0028510223633621996        0                                2.4098444296645622e-12       
                      -7.2099072816617864e-17                          132                                         1487.7416568616968                  -3.3764976191627265e-08                -2.1550603292371154e-22             9.7528961504279986e-21           1.9513987899757772                   1.9513987899757772                     1.9513987899757772              -1.672083076701533e-17     -6.6944437422042755e-17  100.00499987500626   100.00000000000001   1                    0                    1.1556442476289784e-17    26                            1                           5                     0.99522558537842631  0.097140006863831396  0.0028616274178043062        6.381494192216036e-15              2.4162259238567784e-12       
                      -7.2099934145280687e-17                          138                                         1484.0032928650205                  -3.372162719409934e-08                -8.613286628210548e-22             9.9077907320754193e-21           1.9643275301323735                   1.9643275301323735                     1.9643275301323735              -1.6720901386296393e-17     -6.6944635199235931e-17  100.00499987500626   100.00000000000001   1                    0                    1.155569464951956e-17    27                            2                           5                     0.99522896824689278  0.097096031316558334  0.0029039394201673058        2.5525976768864144e-14              2.4417519006256422e-12       
                      -7.2103368762731303e-17                          144                                         1469.2654442822943                  -3.3557798696414796e-08                -3.4346174506073025e-21             1.0530327790450568e-20           2.0147286051542075                   2.0147286051542075                     2.0147286051542075              -1.6721186808389028e-17     -6.6945434650160198e-17  100.00499987500626   100.00000000000001   1                    0                    1.1552722368027477e-17    28                            3                           5                     0.99524264857184142  0.096917657935183615  0.0030714624202015902        1.0210390707545658e-13              2.5438558077010992e-12       
                      -7.2116961896318454e-17                          150                                         1413.9029230502524                  -3.3043006844794261e-08                -1.3593133587151987e-20             1.3052694742058968e-20           2.1968092001560517                   2.1968092001560517                     2.1968092001560517              -1.672237337068319e-17     -6.6948759697782676e-17  100.00499987500626   100.00000000000001   1                    0                    1.1541118477405351e-17    29                            4                           5                     0.9952996459309259   0.096165909560184795  0.0037143657565678195        4.0841562830182631e-13              2.9522714360029254e-12       
                      -8.5506713835874987e-17                          151                                         1420.4305074563749                  -3.5402647968634082e-08                -1.3389751939556534e-17             1.3052694742058968e-20           2.1968092001560517                   2.1968092001560517                     2.1968092001560517              -1.672237337068319e-17     -8.0338511637339209e-17  120.00599985000751   120.00000000000001   1.2000000000000002   0                    1.1541118477405351e-17    30                            0                           6                     0.9952996459309259   0.096165909560184795  0.0037143657565678195        0                                2.9522714360029254e-12       
                      -8.5506950591396414e-17                          157                                         1419.549531032289                   -3.5396259855543532e-08                -2.3675552143403319e-22             1.3094010233615311e-20           2.1995296681543799                   2.1995296681543799                     2.1995296681543799              -1.6722394694113373e-17     -8.0338584661967381e-17  120.00599985000751   120.00000000000001   1.2000000000000002   0                    1.154093475445072e-17    31                            1                           6                     0.99530068831910479  0.096152227076837418  0.0037261245104737938        6.6881131812721005e-15              2.9589595491841975e-12       
                      -8.5507897192133268e-17                          163                                         1416.0419955279513                  -3.537129421148536e-08                -9.4660073684771705e-22             1.3259295573348246e-20           2.2103385987691051                   2.2103385987691051                     2.2103385987691051              -1.672248019638933e-17     -8.033887750488562e-17  120.00599985000751   120.00000000000001   1.2000000000000002   0                    1.1540201213568338e-17    32                            2                           6                     0.99530486890919057  0.096097316528385615  0.0037730279566949602        2.6752452725088402e-14              2.9857120019092857e-12       
                      -8.5511677285466e-17                          169                                         1402.2729690013748                  -3.5280582072818287e-08                -3.7800933327301076e-21             1.3920619185343238e-20           2.2524336675675811                   2.2524336675675811                     2.2524336675675811              -1.6722825494089784e-17     -8.0340060619007496e-17  120.00599985000751   120.00000000000001   1.2000000000000002   0                    1.1537288208445939e-17    33                            3                           6                     0.99532176552150819  0.095874810705684682  0.00395854499786873        1.0700981090035361e-13              3.0927218128096394e-12       
                      -8.5526722250571973e-17                          175                                         1351.2735836030083                  -3.5049532251378596e-08                -1.5044965105972373e-20             1.6558044189789584e-20           2.4041981979077844                   2.4041981979077844                     2.4041981979077844              -1.6724256209906451e-17     -8.0344970140601805e-17  120.00599985000751   120.00000000000001   1.2000000000000002   0                    1.1525946055746503e-17    34                            4                           6                     0.99539198934967899  0.094940624310134628  0.0046675997769001602        4.2803924360141443e-13              3.5207610564110539e-12       
# Table End
