# ODT 1.0
# Table Start
# Title: mmArchive Data Table, Wed Jun 16 18:45:58 EDT 2010
# Columns: {Oxs_EulerEvolve::Total energy} {Oxs_EulerEvolve::Energy calc count} {Oxs_EulerEvolve::Max dm/dt} Oxs_EulerEvolve::dE/dt {Oxs_EulerEvolve::Delta E} Oxs_UniformExchange:NiFe:Energy {Oxs_UniformExchange:NiFe:Max Spin Ang} {Oxs_UniformExchange:NiFe:Stage Max Spin Ang} {Oxs_UniformExchange:NiFe:Run Max Spin Ang} Oxs_UZeeman::Energy  Oxs_UZeeman::B       Oxs_UZeeman::Bx      Oxs_UZeeman::By      Oxs_UZeeman::Bz      Oxs_Demag::Energy    Oxs_TimeDriver::Iteration {Oxs_TimeDriver::Stage iteration} Oxs_TimeDriver::Stage Oxs_TimeDriver::mx   Oxs_TimeDriver::my   Oxs_TimeDriver::mz   {Oxs_TimeDriver::Last time step} {Oxs_TimeDriver::Simulation time}
# Units:                  J                                 {}                             deg/ns                     J/s                       J                             J                                  deg                                        deg                                          deg                              J                 mT                   mT                   mT                   mT                     J                       {}                            {}                          {}                   {}                   {}                   {}                          s                                 s                
                 2.2276959833252233e-16                1                                4340.8380548750647       -3.5621306574040973e-06      0                            6.4480000000000002e-17                 90                                         90                                           90                               0                    0                    0                    0                    0                    1.5828959833252229e-16    0                             0                           0                     0                   -0.35483870967741937  0.064516129032258063        0                                0                         
                 2.2276139486978282e-16                2                                4341.2546361121776       -3.5617499596208571e-06     -8.2034627394688207e-21          6.4475175753039343e-17                 89.998188902655784                         90                                           90                               0                    0                    0                    0                    0                    1.582862191167435e-16    1                             1                           0                    -2.5037348479848019e-07 -0.35483861850306769  0.064514481482148389        2.3037026199973761e-15              2.3037026199973761e-15       
                 2.227511424568862e-16                3                                4341.7754793598042       -3.5612751788754853e-06     -1.0252412896638103e-20          6.4469144318464961e-17                 89.995920781251826                         90                                           90                               0                    0                    0                    0                    0                    1.5828199813842123e-16    2                             2                           0                    -5.6325927241896625e-07 -0.35483850419619634  0.064512421520036389        2.8796282749967204e-15              5.1833308949940966e-15       
                 2.2275118576025908e-16                4                                4519.5504441385765       -3.6965409167771412e-06      0                            6.4469144318464961e-17                 89.995920781251826                         89.995920781251826                           90                               4.3303372863570128e-23  25.000000000000004   25.000000000000004   0                    0                    1.5828199813842123e-16    3                             0                           1                    -5.6325927241896625e-07 -0.35483850419619634  0.064512421520036389        0                                5.1833308949940966e-15       
                 2.2273788648025019e-16                5                                4518.5814352029074       -3.6959424301562636e-06     -1.3299280008865496e-20          6.4461603260027027e-17                 89.99307921154589                          89.995920781251826                           90                              -4.1353682400163403e-22  25.000000000000004   25.000000000000004   0                    0                    1.5827669675704716e-16    4                             1                           1                     5.3789909469515344e-06 -0.35483917793864078  0.06450535119020144        3.5995353437459006e-15              8.7828662387399964e-15       
                 2.2272126711341602e-16                6                                4517.3704994992931       -3.695197015814615e-06     -1.6619366834166805e-20          6.4452174179449043e-17                 89.989517138622091                         89.995920781251826                           90                              -9.8492699537808667e-22  25.000000000000004   25.000000000000004   0                    0                    1.5827007786096236e-16    5                             2                           1                     1.281122522604171e-05 -0.35484001942172505  0.064496512870833439        4.4994191796823756e-15              1.3282285418422373e-14       
                 2.2272028218642064e-16                7                                4701.3053008025445       -4.1009992251113919e-06      0                            6.4452174179449043e-17                 89.989517138622091                         89.989517138622091                           90                              -1.9698539907561733e-21  50.000000000000007   50.000000000000007   0                    0                    1.5827007786096236e-16    6                             0                           2                     1.281122522604171e-05 -0.35484001942172505  0.064496512870833439        0                                1.3282285418422373e-14       
                 2.2269723397460606e-16                8                                4699.8066177027558       -4.1000674270588701e-06     -2.3048211814579214e-20          6.444038347185918e-17                 89.985049472166054                         89.989517138622091                           90                              -4.9209500848051287e-21  50.000000000000007   50.000000000000007   0                    0                    1.5826177145283168e-16    7                             1                           2                     3.2004097846027105e-05 -0.35484234654070329  0.064478441505573067        5.6242739746029697e-15              1.8906559393025343e-14       
                 2.2266843552658863e-16                9                                4697.9338799617572       -4.0989094693219583e-06     -2.8798448017457358e-20          6.4425638302836528e-17                 89.979440823346707                         89.989517138622091                           90                              -8.6130646804563041e-21  50.000000000000007   50.000000000000007   0                    0                    1.5825141028843254e-16    8                             2                           2                     5.6016289545111229e-05 -0.35484525357921137  0.064455853346441064        7.0303424682537114e-15              2.5936901861279053e-14       
# Table End
