# ODT 1.0
# Table Start
# Title: mmArchive Data Table, Wed Jun 16 18:46:00 EDT 2010
# Columns: {Oxs_EulerEvolve::Total energy} {Oxs_EulerEvolve::Energy calc count} {Oxs_EulerEvolve::Max dm/dt} Oxs_EulerEvolve::dE/dt {Oxs_EulerEvolve::Delta E} Oxs_UniformExchange:NiFe:Energy {Oxs_UniformExchange:NiFe:Max Spin Ang} {Oxs_UniformExchange:NiFe:Stage Max Spin Ang} {Oxs_UniformExchange:NiFe:Run Max Spin Ang} Oxs_CubicAnisotropy::Energy Oxs_UZeeman::Energy  Oxs_UZeeman::B       Oxs_UZeeman::Bx      Oxs_UZeeman::By      Oxs_UZeeman::Bz      Oxs_SimpleDemag::Energy Oxs_TimeDriver::Iteration {Oxs_TimeDriver::Stage iteration} Oxs_TimeDriver::Stage Oxs_TimeDriver::mx   Oxs_TimeDriver::my   Oxs_TimeDriver::mz   {Oxs_TimeDriver::Last time step} {Oxs_TimeDriver::Simulation time}
# Units:                  J                                 {}                             deg/ns                     J/s                       J                             J                                  deg                                        deg                                          deg                                  J                       J                 mT                   mT                   mT                   mT                        J                       {}                            {}                          {}                   {}                   {}                   {}                          s                                 s                
                 7.0328030279119766e-16                1                                4034.0057226099193       -3.7579976974233575e-06      0                            6.4480000000000002e-17                 90                                         90                                           90                                  4.6004000000000008e-16      0                    0                    0                    0                    0                     1.7876030279119759e-16      0                             0                           0                     0                    0                    0.096774193548387094        0                                0                         
                 7.0327099097075892e-16                2                                4033.2196485819991       -3.7570985498651613e-06     -9.3118204387449937e-21          6.4475307418750984e-17                 89.998638128053202                         90                                           90                                  4.6004000174606342e-16      0                    0                    0                    0                    0                     1.7875568180594446e-16      1                             1                           0                     5.9882708544417898e-23 -4.9723203933264036e-21  0.096770888480095157        2.478925586037643e-15              2.478925586037643e-15       
                 7.0325935521874307e-16                3                                4032.2382876305746       -3.7559782117499219e-06     -1.1635752015822608e-20          6.4469438972474903e-17                 89.996925415968178                         90                                           90                                  4.6004000883533037e-16      0                    0                    0                    0                    0                     1.7874990741093776e-16      2                             2                           0                     1.3326773925356684e-22  1.1090677457233613e-21  0.096766760657806206        3.0986569825470539e-15              5.5775825685846973e-15       
                 7.0325935521874307e-16                4                                4195.9752420018949       -3.891245333726956e-06      0                            6.4469438972474903e-17                 89.996925415968178                         89.996925415968178                           90                                  4.6004000883533037e-16     -1.039463022138263e-38  25.000000000000004   25.000000000000004   0                    0                     1.7874990741093776e-16      3                             0                           1                     1.3326773925356684e-22  1.1090677457233613e-21  0.096766760657806206        0                                5.5775825685846973e-15       
                 7.0324429313123583e-16                5                                4195.4400837767598       -3.8899324920998926e-06     -1.5062087507260592e-20          6.4462099165792148e-17                 89.994768569771395                         89.996925415968178                           90                                  4.6004002548396367e-16     -5.2393301032708861e-22  25.000000000000004   25.000000000000004   0                    0                     1.7874269241449032e-16      4                             1                           1                     6.8149455037342422e-06 -1.3190219338375812e-06  0.096761606356828997        3.8733212281838175e-15              9.4509037967685148e-15       
                 7.0322547496912075e-16                6                                4194.7726331565227       -3.8883005980429831e-06     -1.8818162115031032e-20          6.4452917772124235e-17                 89.992048313371043                         89.996925415968178                           90                                  4.6004005860393961e-16     -1.1799115340716733e-21  25.000000000000004   25.000000000000004   0                    0                     1.7873367850459102e-16      5                             2                           1                     1.5347444511858393e-05 -2.9670348874555137e-06  0.096755172022129549        4.8416515352297713e-15              1.4292555331998286e-14       
                 7.0322429505758668e-16                7                                4414.1075303226189       -4.294286381163835e-06      0                            6.4452917772124235e-17                 89.992048313371043                         89.992048313371043                           90                                  4.6004005860393961e-16     -2.3598230681433466e-21  50.000000000000007   50.000000000000007   0                    0                     1.7873367850459102e-16      6                             0                           2                     1.5347444511858393e-05 -2.9670348874555137e-06  0.096755172022129549        0                                1.4292555331998286e-14       
                 7.0319833194372662e-16                8                                4413.2501323965516       -4.2926462482105244e-06     -2.5963113860027141e-20          6.4441430633558839e-17                 89.988610996673884                         89.992048313371043                           90                                  4.600401210750242e-16     -5.6403804879787924e-21  50.000000000000007   50.000000000000007   0                    0                     1.7872242061563159e-16      7                             1                           2                     3.6683015660632101e-05 -7.086831783306976e-06  0.096747142284609705        6.052064419037215e-15              2.0344619751035501e-14       
                 7.0316589855958938e-16                9                                4412.1821834272414       -4.2906212605835698e-06     -3.2433384137258982e-20          6.4427055498763341e-17                 89.984257966995273                         89.992048313371043                           90                                  4.6004023174849396e-16     -9.7514543371338509e-21  50.000000000000007   50.000000000000007   0                    0                     1.7870836276666925e-16      8                             2                           2                     6.3419968373659279e-05 -1.2232854936025697e-05  0.096737125720742265        7.5650805237965179e-15              2.7909700274832019e-14       
# Table End
