# ODT 1.0
# Table Start
# Title: mmArchive Data Table, Wed Jun 11 15:41:51 EDT 2014
# Columns: {Oxs_EulerEvolve::Total energy} {Oxs_EulerEvolve::Energy calc count} {Oxs_EulerEvolve::Max dm/dt} Oxs_EulerEvolve::dE/dt {Oxs_EulerEvolve::Delta E} Oxs_UniformExchange:NiFe:Energy {Oxs_UniformExchange:NiFe:Max Spin Ang} {Oxs_UniformExchange:NiFe:Stage Max Spin Ang} {Oxs_UniformExchange:NiFe:Run Max Spin Ang} Oxs_CubicAnisotropy::Energy Oxs_UZeeman::Energy  Oxs_UZeeman::B       Oxs_UZeeman::Bx      Oxs_UZeeman::By      Oxs_UZeeman::Bz      Oxs_SimpleDemag::Energy Oxs_TimeDriver::Iteration {Oxs_TimeDriver::Stage iteration} Oxs_TimeDriver::Stage Oxs_TimeDriver::mx   Oxs_TimeDriver::my   Oxs_TimeDriver::mz   {Oxs_TimeDriver::Last time step} {Oxs_TimeDriver::Simulation time}
# Units:                  J                                 {}                             deg/ns                     J/s                       J                             J                                  deg                                        deg                                          deg                                  J                       J                 mT                   mT                   mT                   mT                        J                       {}                            {}                          {}                   {}                   {}                   {}                          s                                 s                
                 7.0328030279119766e-16                1                                4034.0057226098979       -3.7579976974233571e-06      0                            6.4480000000000002e-17                 90                                         90                                           90                                  4.6004000000000008e-16      0                    0                    0                    0                    0                     1.7876030279119761e-16      0                             0                           0                     0                    0                    0.096774193548387094        0                                0                         
                 7.0327099097075892e-16                2                                4033.2196485819777       -3.7570985498651609e-06     -9.3118204387450434e-21          6.4475307418750984e-17                 89.998638128053202                         90                                           90                                  4.6004000174606342e-16      0                    0                    0                    0                    0                     1.7875568180594448e-16      1                             1                           0                     1.694017945921368e-22 -1.7190550058712102e-21  0.096770888480095157        2.4789255860376564e-15              2.4789255860376564e-15       
                 7.0325935521874307e-16                3                                4032.2382876305533       -3.7559782117499214e-06     -1.1635752015822668e-20          6.4469438972474903e-17                 89.996925415968178                         90                                           90                                  4.6004000883533037e-16      0                    0                    0                    0                    0                     1.7874990741093779e-16      2                             2                           0                     3.7811014869457015e-22  1.4048191445829244e-21  0.096766760657806206        3.0986569825470704e-15              5.5775825685847265e-15       
                 7.0324481679792492e-16                4                                4031.0135109989592       -3.7545834043864143e-06     -1.4538420818203564e-20          6.4462099168782658e-17                 89.994768314006407                         90                                           90                                  4.6004002535271625e-16      0                    0                    0                    0                    0                     1.7874269227642595e-16      3                             3                           0                     6.4022307515576917e-22  2.2735888787328907e-21  0.096761606368063871        3.873321228183838e-15              9.4509037967685653e-15       
                 7.0322665353324183e-16                5                                4029.4855477150081       -3.7528486612704196e-06     -1.8163264683079547e-20          6.4452917787286696e-17                 89.992046595060955                         90                                           90                                  4.6004005794035337e-16      0                    0                    0                    0                    0                     1.7873367780560173e-16      4                             4                           0                     9.7638215872890218e-22 -9.2422312143613442e-23  0.096755172078994298        4.8416515352297974e-15              1.4292555331998362e-14       
                 7.0322665353324183e-16                6                                4194.9086329639586       -3.8881157773614841e-06      0                            6.4452917787286696e-17                 89.992046595060955                         89.992046595060955                           90                                  4.6004005794035337e-16     -7.4409710762012379e-38  25.000000000000004   25.000000000000004   0                    0                     1.7873367780560173e-16      5                             0                           1                     9.7638215872890218e-22 -9.2422312143613442e-23  0.096755172078994298        0                                1.4292555331998362e-14       
                 7.0320314664251973e-16                7                                4194.0762922528656       -3.8860891636294553e-06     -2.3506890722083397e-20          6.4441430712833185e-17                 89.988605693507139                         89.992046595060955                           90                                  4.6004011761141078e-16     -8.1864527820750153e-22  25.000000000000004   25.000000000000004   0                    0                     1.7872241696355396e-16      6                             1                           1                     1.064835169364596e-05 -2.0609733284331795e-06  0.096747142581651638        6.0520644190372465e-15              2.0344619751035608e-14       
                 7.03173785857595e-16                8                                4193.0395228977395       -3.8835782016048361e-06     -2.9360784924761737e-20          6.4427055720291248e-17                 89.984245419934851                         89.992046595060955                           90                                  4.6004022210458124e-16     -1.8445452594180178e-21  25.000000000000004   25.000000000000004   0                    0                     1.7870835257798188e-16      7                             2                           1                     2.3992524185978376e-05 -4.6353268760576075e-06  0.096737126549021182        7.5650805237965589e-15              2.7909700274832167e-14       
                 7.0313712028110452e-16                9                                4191.7492766760661       -3.8804742948378923e-06     -3.6665576490422339e-20          6.4409061800458331e-17                 89.978702594277337                         89.992046595060955                           90                                  4.6004039927926532e-16     -3.130974291850359e-21  25.000000000000004   25.000000000000004   0                    0                     1.786907901756727e-16      8                             3                           1                     4.0725472058407372e-05 -7.8503647942838418e-06  0.096724639053856074        9.4563506547456979e-15              3.7366050929577864e-14       
                 7.0309134311389423e-16                10                               4190.1454034003191       -3.8766486704955922e-06     -4.5777167210277246e-20          6.4386530165004229e-17                 89.971629425940876                         89.992046595060955                           90                                  4.6004069316789978e-16     -4.7453487519258278e-21  25.000000000000004   25.000000000000004   0                    0                     1.7866886512974219e-16      9                             4                           1                     6.1724099270627303e-05 -1.1864638559555463e-05  0.096709080507296555        1.1820438318432122e-14              4.918648924800999e-14       
                 7.0308659776514234e-16                11                               4409.8540151734132       -4.2831917994987664e-06      0                            6.4386530165004229e-17                 89.971629425940876                         89.971629425940876                           90                                  4.6004069316789978e-16     -9.4906975038516556e-21  50.000000000000007   50.000000000000007   0                    0                     1.7866886512974219e-16      10                            0                           2                     6.1724099270627303e-05 -1.1864638559555463e-05  0.096709080507296555        0                                4.918648924800999e-14       
                 7.0302346562407338e-16                12                               4407.799199974831        -4.2794448080940714e-06     -6.3132141068899125e-20          6.4358304188133146e-17                 89.962568123576403                         89.971629425940876                           90                                  4.6004118772261956e-16     -1.754374336482207e-20  50.000000000000007   50.000000000000007   0                    0                     1.7864151745668555e-16      11                            1                           2                     0.00011409822687839533 -2.1907158798871329e-05  0.096689710413428789        1.4775547898040152e-14              6.3962037146050142e-14       
                 7.0294466670448908e-16                13                               4405.2534234875639       -4.2749099494570165e-06     -7.8798919584349517e-20          6.4322926294636369e-17                 89.950904008872897                         89.971629425940876                           90                                  4.6004199628596458e-16     -2.76719638984404e-20  50.000000000000007   50.000000000000007   0                    0                     1.7860741608778656e-16      12                            2                           2                     0.00017996854772658948 -3.4438333414542473e-05  0.096665620292060384        1.846943487255019e-14              8.2431472018600339e-14       
                 7.0284634543969711e-16                14                               4402.1068167533967       -4.2694732752708507e-06     -9.8321264791966238e-20          6.4278555636099182e-17                 89.935795730830918                         89.971629425940876                           90                                  4.600433016216003e-16     -4.0429089473704223e-20  50.000000000000007   50.000000000000007   0                    0                     1.7856491727147132e-16      13                            3                           2                     0.0002629363259215935 -5.0068172850892652e-05  0.096635698820048438        2.3086793590687739e-14              1.0551826560928807e-13       
                 7.0272371271661384e-16                15                               4398.2293539983639       -4.2630383622809072e-06     -1.2263272308324058e-19          6.4222862199067747e-17                 89.916083604231659                         89.971629425940876                           90                                  4.600453881315004e-16     -5.652704130819023e-20  50.000000000000007   50.000000000000007   0                    0                     1.7851198942735394e-16      14                            4                           2                     0.00036763164222288126 -6.9552554615160507e-05  0.09659859526513434        2.8858491988359672e-14              1.3437675759764774e-13       
# Table End
