# ODT 1.0
# Table Start
# Title: mmArchive Data Table, Wed Jun 11 15:41:49 EDT 2014
# Columns: {Oxs_EulerEvolve::Total energy} {Oxs_EulerEvolve::Energy calc count} {Oxs_EulerEvolve::Max dm/dt} Oxs_EulerEvolve::dE/dt {Oxs_EulerEvolve::Delta E} Oxs_UniformExchange:NiFe:Energy {Oxs_UniformExchange:NiFe:Max Spin Ang} {Oxs_UniformExchange:NiFe:Stage Max Spin Ang} {Oxs_UniformExchange:NiFe:Run Max Spin Ang} Oxs_UZeeman::Energy  Oxs_UZeeman::B       Oxs_UZeeman::Bx      Oxs_UZeeman::By      Oxs_UZeeman::Bz      Oxs_Demag::Energy    Oxs_TimeDriver::Iteration {Oxs_TimeDriver::Stage iteration} Oxs_TimeDriver::Stage Oxs_TimeDriver::mx   Oxs_TimeDriver::my   Oxs_TimeDriver::mz   {Oxs_TimeDriver::Last time step} {Oxs_TimeDriver::Simulation time}
# Units:                  J                                 {}                             deg/ns                     J/s                       J                             J                                  deg                                        deg                                          deg                              J                 mT                   mT                   mT                   mT                     J                       {}                            {}                          {}                   {}                   {}                   {}                          s                                 s                
                 2.2276959833251774e-16                1                                4340.8380548751202       -3.5621306574042197e-06      0                            6.4480000000000002e-17                 90                                         90                                           90                               0                    0                    0                    0                    0                    1.5828959833251775e-16    0                             0                           0                     0                   -0.35483870967741937  0.064516129032258063        0                                0                         
                 2.2276139486977828e-16                2                                4341.254636112234        -3.5617499596209791e-06     -8.2034627394689952e-21          6.4475175753039343e-17                 89.99818890265577                          90                                           90                               0                    0                    0                    0                    0                    1.5828621911673894e-16    1                             1                           0                    -2.5037348479822042e-07 -0.35483861850306769  0.064514481482148403        2.3037026199973465e-15              2.3037026199973465e-15       
                 2.2275114245688166e-16                3                                4341.7754793598597       -3.5612751788756077e-06     -1.0252412896638323e-20          6.4469144318464961e-17                 89.995920781251826                         90                                           90                               0                    0                    0                    0                    0                    1.5828199813841669e-16    2                             2                           0                    -5.6325927241838169e-07 -0.35483850419619634  0.064512421520036389        2.879628274996683e-15              5.1833308949940295e-15       
                 2.2273832992866878e-16                4                                4342.4267149838752       -3.5606834064882304e-06     -1.2812528212875344e-20          6.4461603267002936e-17                 89.99307898991394                          90                                           90                               0                    0                    0                    0                    0                    1.5827672666166583e-16    3                             3                           0                    -9.5423985011411338e-07 -0.35483836078315273  0.064509845747603142        3.5995353437458541e-15              8.7828662387398828e-15       
                 2.2272231892705073e-16                5                                4343.2410416839357       -3.5599463490844681e-06     -1.6011001618054677e-20          6.44521742072513e-17                 89.989516377587719                         90                                           90                               0                    0                    0                    0                    0                    1.5827014471979942e-16    4                             4                           0                    -1.4427676953575034e-06 -0.35483818068982292  0.064506624750544139        4.4994191796823172e-15              1.3282285418422201e-14       
                 2.2272242984703115e-16                6                                4517.2631931173091       -3.6952099202620218e-06      0                            6.44521742072513e-17                 89.989516377587719                         89.989516377587719                           90                               1.1091998041908488e-22  25.000000000000004   25.000000000000004   0                    0                    1.5827014471979942e-16    5                             0                           1                    -1.4427676953575034e-06 -0.35483818068982292  0.064506624750544139        0                                1.3282285418422201e-14       
                 2.2270166294206636e-16                7                                4515.7500787496929       -3.6942822665356477e-06     -2.0766904964793468e-20          6.4440383575371733e-17                 89.985047653989312                         89.989516377587719                           90                              -6.0293557091280166e-22  25.000000000000004   25.000000000000004   0                    0                    1.5826188230226552e-16    6                             1                           1                     7.8425542522476781e-06 -0.35483923105559306  0.064495573749152074        5.6242739746028963e-15              1.8906559393025096e-14       
                 2.2267571579808612e-16                8                                4513.8594792782287       -3.6931292509311436e-06     -2.5947143980245573e-20          6.4425638566004211e-17                 89.979437073720575                         89.989516377587719                           90                              -1.4960848696608743e-21  25.000000000000004   25.000000000000004   0                    0                    1.5825157331695155e-16    7                             2                           1                     1.9460000906098777e-05 -0.35484054231788981  0.064481758999628033        7.0303424682536206e-15              2.5936901861278719e-14       
                 2.2264329974216851e-16                9                                4511.4974684830249       -3.6916981905642617e-06     -3.2416055917617386e-20          6.4407196819036624e-17                 89.972385302645691                         89.989516377587719                           90                              -2.613817731279293e-21  25.000000000000004   25.000000000000004   0                    0                    1.5823871674086314e-16    8                             3                           1                     3.3998669761697358e-05 -0.35484217875038854  0.064464488998311351        8.7879280853170254e-15              3.4724829946595742e-14       
                 2.2260280745491349e-16                10                               4513.6116637671003       -3.6899252628990399e-06     -4.0492287254987838e-20          6.438412827976007e-17                 89.963510380994677                         89.989516377587719                           90                              -4.0130083654566612e-21  25.000000000000004   25.000000000000004   0                    0                    1.5822269218351888e-16    9                             4                           1                     5.2198339821236475e-05 -0.35484422016334277  0.064442899041695645        1.0984910106646283e-14              4.5709740053242025e-14       
                 2.2259879444654804e-16                11                               4700.1765789620194       -4.0957318150329618e-06      0                            6.438412827976007e-17                 89.963510380994677                         89.963510380994677                           90                              -8.0260167309133224e-21  50.000000000000007   50.000000000000007   0                    0                    1.5822269218351888e-16    10                            0                           2                     5.2198339821236475e-05 -0.35484422016334277  0.064442899041695645        0                                4.5709740053242025e-14       
                 2.2254265577017869e-16                12                               4703.1907405171969       -4.0935308979959799e-06     -5.6138676369360209e-20          6.4355266702382432e-17                 89.952328214355276                         89.963510380994677                           90                              -1.5245057309471732e-20  50.000000000000007   50.000000000000007   0                    0                    1.5820263412510571e-16    11                            1                           2                     9.914839561310958e-05 -0.35484987882865859  0.064398761663679499        1.3731137633307854e-14              5.9440877686549884e-14       
                 2.2247255120688922e-16                13                               4706.9590357167899       -4.0908196139852803e-06     -7.0104563289441757e-20          6.4319149608094132e-17                 89.938207297224793                         89.963510380994677                           90                              -2.4288181256673353e-20  50.000000000000007   50.000000000000007   0                    0                    1.5817768978005178e-16    12                            2                           2                     0.00015796163668492031 -0.3548569411327972   0.064343596073557177        1.7163922041634817e-14              7.66047997281847e-14       
                 2.2238502686682702e-16                14                               4711.6701858808683       -4.0874923893671283e-06     -8.7524340062228993e-20          6.4273940766513746e-17                 89.920332553861172                         89.963510380994677                           90                              -3.5622254780649815e-20  50.000000000000007   50.000000000000007   0                    0                    1.5814670835509391e-16    13                            3                           2                     0.00023167439373471521 -0.35486575183943453  0.064274648573466625        2.1454902552043521e-14              9.8059702280228212e-14       
                 2.2227578548519669e-16                15                               4717.5600610638876       -4.0834292584123524e-06     -1.0924138163029713e-19          6.4217332536142055e-17                 89.897640082849534                         89.963510380994677                           90                              -4.9836938364752364e-20  50.000000000000007   50.000000000000007   0                    0                    1.581082898874194e-16    14                            4                           2                     0.00032412160747107412 -0.35487673849989748  0.064188478835673135        2.6818628190054402e-14              1.2487833047028263e-13       
# Table End
