# ODT 1.0
# Table Start
# Title: mmArchive Data Table, Tue Jun 08 18:15:23 EDT 2021
# Columns: {Oxs_RungeKuttaEvolve:evolver:Total energy} {Oxs_RungeKuttaEvolve:evolver:Energy calc count} {Oxs_RungeKuttaEvolve:evolver:Max dm/dt} Oxs_RungeKuttaEvolve:evolver:dE/dt {Oxs_RungeKuttaEvolve:evolver:Delta E} Oxs_UniformExchange::Energy {Oxs_UniformExchange::Max Spin Ang} {Oxs_UniformExchange::Stage Max Spin Ang} {Oxs_UniformExchange::Run Max Spin Ang} Oxs_Demag::Energy    Oxs_FixedZeeman::Energy Oxs_TimeDriver::Iteration {Oxs_TimeDriver::Stage iteration} Oxs_TimeDriver::Stage Oxs_TimeDriver::mx   Oxs_TimeDriver::my   Oxs_TimeDriver::mz   {Oxs_TimeDriver::Last time step} {Oxs_TimeDriver::Simulation time}
# Units:                        J                                             {}                                         deg/ns                                 J/s                                   J                                 J                              deg                                    deg                                      deg                           J                       J                       {}                            {}                          {}                   {}                   {}                   {}                          s                                 s
                       4.1150227428891047e-18                            1                                            226.71299593264771                   -4.0030573433772819e-11                  0                                9.0375682026290676e-20             2.147067958362912                      2.147067958362912                        2.147067958362912              5.3857323022933248e-19   3.4860738306334817e-18      0                             0                           0                     0.96671597969141987  0.12574904562458797 -5.9031259592751805e-15        0                                0
                       4.1150210654459713e-18                            3                                            226.71524993834149                   -4.0032185756053101e-11                 -1.6774431337821627e-24              9.0376257643762359e-20             2.1470738046741222                     2.1470738046741222                       2.1470738046741222             5.3857293665990954e-19   3.4860718711422991e-18      1                             1                           0                     0.9667156490713914   0.12575019214129721 -5.3429273563225369e-05        4.190319995075305e-14              4.190319995075305e-14
                       4.1150143520891117e-18                            5                                            226.87469996643358                   -4.0073379068099404e-11                 -6.7133568598122109e-24              9.0379959979740336e-20             2.147111587160544                      2.147111587160544                        2.147111587160544              5.385759998613116e-19   3.4860583922480596e-18      2                             2                           0                     0.96671337337155661  0.12575807053176183 -0.00026707387832181642        1.676127998030122e-13              2.0951599975376525e-13
                       4.1149942035311332e-18                            7                                            228.73154866195293                   -4.0525728992502207e-11                 -2.0148557978042779e-23              9.0404328925769156e-20             2.1473610580830527                     2.1473610580830527                       2.1473610580830527             5.3862528572847911e-19   3.4859645888768854e-18      3                             3                           0                     0.96669752749201721  0.12581284894365732 -0.00090369582568297082        4.9999999999999999e-13              7.0951599975376524e-13
                       4.1149737061874135e-18                            9                                            231.97002779506241                   -4.1468788071522105e-11                 -2.0497343720070354e-23              9.0448887572484605e-20             2.1478152610483794                     2.1478152610483794                       2.1478152610483794             5.3873420168352883e-19   3.4857906169314002e-18      4                             4                           0                     0.96666812993163187  0.12591439149817293 -0.001539257945667679        4.9999999999999999e-13              1.2095159997537651e-12
# Table End
