# ODT 1.0
# Table Start
# Title: mmArchive Data Table, Tue Jun 08 18:15:26 EDT 2021
# Columns: {Oxs_RungeKuttaEvolve:evolver:Total energy} {Oxs_RungeKuttaEvolve:evolver:Energy calc count} {Oxs_RungeKuttaEvolve:evolver:Max dm/dt} Oxs_RungeKuttaEvolve:evolver:dE/dt {Oxs_RungeKuttaEvolve:evolver:Delta E} Oxs_UniformExchange::Energy {Oxs_UniformExchange::Max Spin Ang} {Oxs_UniformExchange::Stage Max Spin Ang} {Oxs_UniformExchange::Run Max Spin Ang} Oxs_Demag::Energy    Oxs_FixedZeeman::Energy Oxs_TimeDriver::Iteration {Oxs_TimeDriver::Stage iteration} Oxs_TimeDriver::Stage Oxs_TimeDriver::mx   Oxs_TimeDriver::my   Oxs_TimeDriver::mz   {Oxs_TimeDriver::Last time step} {Oxs_TimeDriver::Simulation time}
# Units:                        J                                             {}                                         deg/ns                                 J/s                                   J                                 J                              deg                                    deg                                      deg                           J                       J                       {}                            {}                          {}                   {}                   {}                   {}                          s                                 s
                       5.8955443522276723e-18                            1                                            253.68610633317888                   -3.4112693422093202e-11                  0                                9.0375682026290676e-20             2.147067958362912                      2.147067958362912                        2.147067958362912              5.3857323022933248e-19   5.2665954399720485e-18      0                             0                           0                     0.96671597969141987  0.12574904562458797 -5.9031259592751805e-15        0                                0
                       5.8955430747690545e-18                            7                                            253.68474023924699                   -3.4113688892123262e-11                 -1.277458617471507e-24              9.0376587728923995e-20             2.1470780882432581                     2.1470780882432581                       2.1470780882432581             5.385725170144123e-19   5.2665939700257184e-18      1                             1                           0                     0.96671576214400967  0.1257487159882173   1.0709789194462858e-05        3.7447852928623401e-14              3.7447852928623401e-14
                       5.8955379632757483e-18                            13                                           253.79096416520738                   -3.4140562321708925e-11                 -5.111493305957652e-24              9.0382456147405989e-20             2.1471438500975939                     2.1471438500975939                       2.1471438500975939             5.3857126614747885e-19   5.2665842409808637e-18      2                             2                           0                     0.96671433443007027  0.12574646575739729  5.3533811764987448e-05        1.497914117144936e-13              1.87239264643117e-13
                       5.8955208213842816e-18                            19                                           255.32444519349326                   -3.4494736450691278e-11                 -1.7141891466950758e-23              9.0428041148098434e-20             2.1476555363765994                     2.1476555363765994                       2.1476555363765994             5.3858557693818208e-19   5.2665072032980003e-18      3                             3                           0                     0.96670311404922205  0.12572817035544179  0.00019629750597003687        4.9999999999999999e-13              6.8723926464311701e-13
                       5.8955034010533544e-18                            25                                           258.2070632880243                    -3.5253849579776798e-11                 -1.7420330926871886e-23              9.0513612686932719e-20             2.1486158839017624                     2.1486158839017624                       2.1486158839017624             5.386281460572736e-19   5.2663616423091479e-18      4                             4                           0                     0.96668196698886755  0.12569329956976569  0.00033876466134967682        4.9999999999999999e-13              1.187239264643117e-12
# Table End
