# ODT 1.0
# Table Start
# Title: mmArchive Data Table, Tue Jun 09 18:26:31 EDT 2015
# Columns: {Oxs_RungeKuttaEvolve:evolver:Total energy} {Oxs_RungeKuttaEvolve:evolver:Energy calc count} {Oxs_RungeKuttaEvolve:evolver:Max dm/dt} Oxs_RungeKuttaEvolve:evolver:dE/dt {Oxs_RungeKuttaEvolve:evolver:Delta E} Oxs_UniformExchange::Energy {Oxs_UniformExchange::Max Spin Ang} {Oxs_UniformExchange::Stage Max Spin Ang} {Oxs_UniformExchange::Run Max Spin Ang} Oxs_Demag::Energy    Oxs_FixedZeeman::Energy Oxs_TimeDriver::Iteration {Oxs_TimeDriver::Stage iteration} Oxs_TimeDriver::Stage Oxs_TimeDriver::mx   Oxs_TimeDriver::my   Oxs_TimeDriver::mz   {Oxs_TimeDriver::Last time step} {Oxs_TimeDriver::Simulation time}
# Units:                        J                                             {}                                         deg/ns                                 J/s                                   J                                 J                              deg                                    deg                                      deg                           J                       J                       {}                            {}                          {}                   {}                   {}                   {}                          s                                 s                
                       4.115022742898014e-18                            1                                            226.71299705095393                   -4.0030573433653427e-11                  0                                9.0375682025340458e-20             2.147067958637582                      2.147067958637582                        2.147067958637582              5.3857323023023776e-19   3.4860738306424358e-18      0                             0                           0                     0.96671597969290479  0.12574904561919942  3.2176626416028486e-16        0                                0                         
                       4.1150210654672582e-18                            7                                            226.71524508492493                   -4.0032185749856988e-11                 -1.6774307553209593e-24              9.0376257641273444e-20             2.1470738048910842                     2.1470738048910842                       2.1470738048910842             5.3857293666223048e-19   3.4860718711637547e-18      1                             1                           0                     0.96671564907494112  0.12575019212833868 -5.3429271538857364e-05        4.1903199744057318e-14              4.1903199744057318e-14       
                       4.1150143528845354e-18                            13                                           226.87322901986988                   -4.0073377033503149e-11                 -6.7125827234259882e-24              9.0379960199311299e-20             2.1471115845311042                     2.1471115845311042                       2.1471115845311042             5.385759996027844e-19   3.4860583930824395e-18      2                             2                           0                     0.9667133735099388   0.12575807002982212 -0.00026707376287523        1.6761279897622927e-13              2.0951599872028658e-13       
                       4.1149872941490279e-18                            19                                           229.54368121696373                   -4.0792016498040247e-11                 -2.705873550720754e-23              9.0417282326938827e-20             2.1474927720550658                     2.1474927720550658                       2.1474927720550658             5.3865569671885689e-19   3.4859143151032319e-18      3                             3                           0                     0.9666890331385446   0.12584219717519055 -0.0011204763622513028        6.7045119590491709e-13              8.7996719462520367e-13       
                       4.1149379719513451e-18                            31                                           238.38554030309328                   -4.4140301301389694e-11                 -4.9322197682865421e-23              9.0569903588346706e-20             2.1490549289051017                     2.1490549289051017                       2.1490549289051017             5.3904853910540971e-19   3.4853195292575883e-18      4                             4                           0                     0.96658849382737577  0.12618916738826144 -0.0026021186549478538        1.1676365522363651e-12              2.0476037468615689e-12       
# Table End
