# ODT 1.0
# Table Start
# Title: mmArchive Data Table, Wed Jun 11 15:41:59 EDT 2014
# Columns: {Oxs_CGEvolve::Max mxHxm} {Oxs_CGEvolve::Total energy} {Oxs_CGEvolve::Delta E} {Oxs_CGEvolve::Bracket count} {Oxs_CGEvolve::Line min count} {Oxs_CGEvolve::Conjugate cycle count} {Oxs_CGEvolve::Cycle count} {Oxs_CGEvolve::Cycle sub count} {Oxs_CGEvolve::Energy calc count} Oxs_UniaxialAnisotropy::Energy Oxs_UniformExchange::Energy {Oxs_UniformExchange::Max Spin Ang} {Oxs_UniformExchange::Stage Max Spin Ang} {Oxs_UniformExchange::Run Max Spin Ang} Oxs_Demag::Energy    Oxs_MinDriver::Iteration {Oxs_MinDriver::Stage iteration} Oxs_MinDriver::Stage Oxs_MinDriver::mx    Oxs_MinDriver::my    Oxs_MinDriver::mz   
# Units:              A/m                         J                          J                         {}                             {}                                {}                               {}                            {}                               {}                               J                             J                              deg                                    deg                                      deg                           J                       {}                           {}                         {}                 {}                   {}                   {}           
              94305859.970754802          8.3395014656393847e-14       8.3395014656393847e-14        0                              0                                 1                                1                             0                                1                                6.6812759070755507e-17          8.2994982786608102e-14             179.65004826348246                     179.65004826348246                       179.65004826348246             3.3321911071498786e-16    0                            0                          0                   -0.0010821396544795918  0.0011025038669728476 -0.0032518676227447987
              94297330.817409649          8.3376583352445329e-14      -1.8431303948519304e-17        1                              0                                 1                                1                             0                                2                                6.6812607449001874e-17          8.2976552473384037e-14             179.65364233638326                     179.65364233638326                       179.65364233638326             3.3321827161229131e-16    1                            1                          0                   -0.0010827628168749153  0.0011024787809036723 -0.0032553060971987351
              96291283.672570348          7.9693562403107773e-14      -3.6830209493375488e-15        2                              0                                 1                                1                             0                                3                                6.6781256090155401e-17          7.9293739726705555e-14             179.60085861566111                     179.65364233638326                       179.65364233638326             3.3304142031206398e-16    2                            2                          0                   -0.0012041671596182491  0.0010990007347307579 -0.0039308429770799711
              99641386.739103481          7.6121324272450516e-14      -3.5722381306572602e-15        3                              0                                 2                                2                             0                                4                                6.6747419705433886e-17          7.572174759028009e-14             179.47104904846424                     179.65364233638326                       179.65364233638326             3.3282926246499372e-16    3                            3                          0                   -0.0013335844732518317  0.0010978474171778445 -0.0046419335109205446
              99611666.131551132          7.2749406768830211e-14      -3.3719175036203066e-15        4                              0                                 3                                3                             0                                5                                6.6710939571580114e-17          7.2350110331053905e-14             179.45861998029392                     179.65364233638326                       179.65364233638326             3.3258549820473093e-16    4                            4                          0                   -0.001467626600039781  0.0010920913547551535 -0.0053632943388408549
# Table End
