# ODT 1.0
# Table Start
# Title: mmArchive Data Table, Wed Jun 11 15:41:53 EDT 2014
# Columns: {Oxs_CGEvolve:evolve:Max mxHxm} {Oxs_CGEvolve:evolve:Total energy} {Oxs_CGEvolve:evolve:Delta E} {Oxs_CGEvolve:evolve:Bracket count} {Oxs_CGEvolve:evolve:Line min count} {Oxs_CGEvolve:evolve:Conjugate cycle count} {Oxs_CGEvolve:evolve:Cycle count} {Oxs_CGEvolve:evolve:Cycle sub count} {Oxs_CGEvolve:evolve:Energy calc count} Oxs_UniformExchange::Energy {Oxs_UniformExchange::Max Spin Ang} {Oxs_UniformExchange::Stage Max Spin Ang} {Oxs_UniformExchange::Run Max Spin Ang} Oxs_UniaxialAnisotropy::Energy Oxs_Demag::Energy    Oxs_UZeeman::Energy  Oxs_UZeeman::B       Oxs_UZeeman::Bx      Oxs_UZeeman::By      Oxs_UZeeman::Bz      Oxs_MinDriver::Iteration {Oxs_MinDriver::Stage iteration} Oxs_MinDriver::Stage Oxs_MinDriver::mx    Oxs_MinDriver::my    Oxs_MinDriver::mz   
# Units:                 A/m                               J                                J                               {}                                   {}                                      {}                                     {}                                  {}                                     {}                                 J                              deg                                    deg                                      deg                                 J                        J                     J                 mT                   mT                   mT                   mT                        {}                           {}                         {}                 {}                   {}                   {}           
                 167841.51342462582               -1.4233225277012768e-15            -1.4233225277012768e-15              0                                    0                                       1                                      1                                   0                                      1                                 0                               0                                      0                                        0                                   1.9801980198019803e-19       2.909307911371201e-16 -1.7144513386403772e-15  50.007616402258023   50.000000000000007   0.87275325000000015  0                      0                            0                          0                    0.99503719020998926  0.099503719020998943  0                  
                 167370.1820060329                -1.4233721802335035e-15            -4.9652532226741176e-20              1                                    0                                       1                                      1                                   0                                      2                                 5.1020716307915433e-23             0.0670383190933726                     0.0670383190933726                       0.0670383190933726                  1.9792235749580025e-19       2.9088466008837131e-16 -1.714454813700087e-15  50.007616402258023   50.000000000000007   0.87275325000000015  0                      1                            1                          0                    0.99503963846242705  0.099479206429055722 -2.743283636428439e-26
                 99402.009693339351               -1.4294139712338009e-15            -6.0417910002973345e-18              2                                    0                                       1                                      1                                   0                                      3                                 2.0564533248894722e-18             13.478733384023737                     13.478733384023737                       13.478733384023737                  1.8307152548890593e-19       2.8329332801094699e-16 -1.7149468240951262e-15  50.007616402258023   50.000000000000007   0.87275325000000015  0                      2                            2                          0                    0.99541194659059895  0.094537627986550368  2.6851905711864253e-24
                 84642.325587941814               -1.4322705004576699e-15            -2.8565292238689769e-18              3                                    0                                       2                                      2                                   0                                      4                                 1.8244867443174529e-18             12.600429250704822                     13.478733384023737                       13.478733384023737                  1.6598639344980054e-19       2.8125913997183127e-16 -1.7155201135672686e-15  50.007616402258023   50.000000000000007   0.87275325000000015  0                      3                            3                          0                    0.99583957705612258  0.08913388799000585  7.2913251663754466e-23
                 86149.953485929393               -1.4331713767546415e-15            -9.0087629697169878e-19              4                                    0                                       2                                      2                                   0                                      5                                 1.7787687800982086e-18             12.294627712866681                     13.478733384023737                       13.478733384023737                  1.6084395553831354e-19       2.8057280770328229e-16 -1.7156837971935605e-15  50.007616402258023   50.000000000000007   0.87275325000000015  0                      4                            4                          0                    0.99596786796149661  0.087236100364061958  9.6666860562711304e-23
                 86379.38886400171                -1.3988577008107704e-15             3.4313675943871211e-17              4                                    0                                       3                                      3                                   0                                      6                                 1.7787687800982086e-18             12.294627712866681                     12.294627712866681                       13.478733384023737                  1.6084395553831354e-19       2.8057280770328229e-16 -1.6813701212496893e-15  49.007464074212862   49.000000000000007   0.8552981850000001   0                      5                            0                          1                    0.99596786796149661  0.087236100364061958  9.6666860562711304e-23
                 78173.622605177399               -1.4025912182766759e-15            -3.7335174659055035e-18              5                                    0                                       3                                      3                                   0                                      7                                 2.3877055120164971e-18             13.340686995741768                     13.340686995741768                       13.478733384023737                  1.4863326780061062e-19       2.7654701906250954e-16 -1.6816745761190025e-15  49.007464074212862   49.000000000000007   0.8552981850000001   0                      6                            1                          1                    0.99626641080903655  0.080480366067751191 -7.1467379817731011e-23
                 84349.413808228681               -1.4065869835455154e-15            -3.9957652688395364e-18              6                                    0                                       4                                      4                                   0                                      8                                 2.6062889407919359e-18             13.914152090763626                     13.914152090763626                       13.914152090763626                  1.4649278438430402e-19       2.7221578784866191e-16 -1.6815555531193535e-15  49.007464074212862   49.000000000000007   0.8552981850000001   0                      7                            2                          1                    0.99629843020897224  0.074600637097115188  3.3461605579400069e-23
                 206167.08853528235               -1.4096592054961332e-15            -3.0722219506177967e-18              7                                    0                                       5                                      5                                   0                                      9                                 4.7294346075426375e-18             23.182712691395626                     23.182712691395626                       23.182712691395626                  1.5867846885920539e-19       2.6628520538027199e-16 -1.6808325239528071e-15  49.007464074212862   49.000000000000007   0.8552981850000001   0                      8                            3                          1                    0.99594463907684916  0.070295092766792883  4.6247243760664657e-22
                 175680.34966240151               -1.4097135057565755e-15            -5.4300260442370824e-20              7                                    1                                       5                                      5                                   0                                      10                                4.2225078192076263e-18             21.183894732093837                     23.182712691395626                       23.182712691395626                  1.5669448431295607e-19       2.6685107860367408e-16 -1.6809437866637703e-15  49.007464074212862   49.000000000000007   0.8552981850000001   0                      9                            4                          1                    0.9960018541960487   0.070798823862489063 -1.4024956906427559e-22
                 175839.29372788302               -1.3754085305185394e-15             3.430497523803613e-17              7                                    1                                       6                                      6                                   0                                      11                                4.2225078192076263e-18             21.183894732093837                     21.183894732093837                       23.182712691395626                  1.5669448431295607e-19       2.6685107860367408e-16 -1.6466388114257342e-15  48.007311746167701   48.000000000000007   0.83784312000000005  0                      10                           0                          2                    0.9960018541960487   0.070798823862489063 -1.4024956906427559e-22
                 136518.35864481446               -1.3785669583771269e-15            -3.1584278585874917e-18              8                                    1                                       6                                      6                                   0                                      12                                3.7542625109503484e-18             15.47628306396817                      21.183894732093837                       23.182712691395626                  1.6443165549410333e-19       2.6373491265827202e-16 -1.6462205652018435e-15  48.007311746167701   48.000000000000007   0.83784312000000005  0                      11                           1                          2                    0.99577478525390317  0.06929614250257711  2.0552035525619177e-22
                 174040.63993203247               -1.3813845260261877e-15            -2.817567649060693e-18              9                                    1                                       7                                      7                                   0                                      13                                4.4607134349554502e-18             19.257443656008295                     21.183894732093837                       23.182712691395626                  1.785406331178429e-19       2.5946587631418454e-16 -1.6454896564084456e-15  48.007311746167701   48.000000000000007   0.83784312000000005  0                      12                           2                          2                    0.99536289846982429  0.067533541635838329  3.7179561754888965e-24
                 181239.61703745357               -1.381416066403703e-15            -3.154037751540608e-20              10                                   1                                       7                                      7                                   0                                      14                                4.5238520476050645e-18             19.705106012463634                     21.183894732093837                       23.182712691395626                  1.7902931422842129e-19       2.5934539805776884e-16 -1.6454643458233055e-15  48.007311746167701   48.000000000000007   0.83784312000000005  0                      13                           3                          2                    0.99534851702055605  0.06747927937852656  1.07407622847457e-22
                 193068.08376622596               -1.3839116110138365e-15            -2.4955446101334254e-18              11                                   1                                       8                                      8                                   0                                      15                                4.6782654675683796e-18             16.305336078170672                     21.183894732093837                       23.182712691395626                  1.9176442851829425e-19       2.5602778887031953e-16 -1.6448094297802428e-15  48.007311746167701   48.000000000000007   0.83784312000000005  0                      14                           4                          2                    0.99497166607184306  0.066346117925161194  2.5922416667992026e-22
                 193277.40357614245               -1.3496447478934147e-15             3.426686312042172e-17              11                                   1                                       9                                      9                                   0                                      16                                4.6782654675683796e-18             16.305336078170672                     16.305336078170672                       23.182712691395626                  1.9176442851829425e-19       2.5602778887031953e-16 -1.610542566659821e-15  47.007159418122541   47                   0.82038805500000012  0                      15                           0                          3                    0.99497166607184306  0.066346117925161194  2.5922416667992026e-22
                 180211.75497276298               -1.3518613083690169e-15            -2.2165604756021086e-18              12                                   1                                       9                                      9                                   0                                      17                                5.0002620800653362e-18             16.462430097887449                     16.462430097887449                       23.182712691395626                  2.0529298121026344e-19       2.527954794495766e-16 -1.6098623428798691e-15  47.007159418122541   47                   0.82038805500000012  0                      16                           1                          3                    0.99456730538329163  0.06540876306605399  3.2862601528904634e-22
                 195528.76705515641               -1.3539932213869476e-15            -2.1319130179307787e-18              13                                   1                                       10                                     10                                  0                                      18                                5.3930595751831227e-18             15.666072987334699                     16.462430097887449                       23.182712691395626                  2.2081213182223451e-19       2.4947049576490862e-16 -1.6090775888588616e-15  47.007159418122541   47                   0.82038805500000012  0                      17                           2                          3                    0.99409767700100959  0.064506649830752966  1.540886281619287e-22
                 209900.85759237796               -1.3558650240999681e-15            -1.8718027130204827e-18              14                                   1                                       11                                     11                                  0                                      19                                5.7364737235931073e-18             15.845901402986936                     16.462430097887449                       23.182712691395626                  2.357017562617323e-19       2.4648174337662991e-16 -1.6083189429564529e-15  47.007159418122541   47                   0.82038805500000012  0                      18                           3                          3                    0.99364165730767295  0.063750014768679836  1.6317696547979044e-22
                 184087.78442366575               -1.3575215190433789e-15            -1.6564949434108104e-18              15                                   1                                       12                                     12                                  0                                      20                                5.9870662020892719e-18             14.83112721939716                      16.462430097887449                       23.182712691395626                  2.4982088189646656e-19       2.4383625273404445e-16 -1.6075946588614092e-15  47.007159418122541   47                   0.82038805500000012  0                      19                           4                          3                    0.99320495512830631  0.063104262101632447  3.2222286854237102e-22
                 183980.84473123541               -1.3233173773654766e-15             3.420414167790232e-17              15                                   1                                       13                                     13                                  0                                      21                                5.9870662020892719e-18             14.83112721939716                      14.83112721939716                        23.182712691395626                  2.4982088189646656e-19       2.4383625273404445e-16 -1.5733905171835069e-15  46.007007090077387   46                   0.80293299000000007  0                      20                           0                          4                    0.99320495512830631  0.063104262101632447  3.2222286854237102e-22
                 229270.71355853698               -1.3249761692803837e-15            -1.6587919149070383e-18              16                                   1                                       13                                     13                                  0                                      22                                6.3757885174754591e-18             16.771807051027356                     16.771807051027356                       23.182712691395626                  2.6640958633475133e-19       2.4093386155216922e-16 -1.5725522289363631e-15  46.007007090077387   46                   0.80293299000000007  0                      21                           1                          4                    0.9926866554437862   0.062447845050210414  3.7840531741642545e-22
                 177071.91210325772               -1.3263508280482627e-15            -1.3746587678790477e-18              17                                   1                                       14                                     14                                  0                                      23                                6.5024569621955113e-18             14.228578239275617                     16.771807051027356                       23.182712691395626                  2.7954719713533243e-19       2.3875168287697491e-16 -1.5718845150845684e-15  46.007007090077387   46                   0.80293299000000007  0                      22                           2                          4                    0.99227317580004648  0.061961848357820808 -6.221380000318087e-22
                 225295.19475980545               -1.3277040772848693e-15            -1.3532492366065247e-18              18                                   1                                       15                                     15                                  0                                      24                                6.8522748067742082e-18             16.695330291172258                     16.771807051027356                       23.182712691395626                  2.9590828226813218e-19       2.3619461773774133e-16 -1.5710468781116529e-15  46.007007090077387   46                   0.80293299000000007  0                      23                           3                          4                    0.99175391125259715  0.061384287307932349 -5.163828021512356e-24
                 239282.24919651661               -1.3277158692414045e-15            -1.1791956535210941e-20              19                                   1                                       15                                     15                                  0                                      25                                6.8971896613061002e-18             17.371328973375789                     17.371328973375789                       23.182712691395626                  2.9651385284138327e-19       2.3610604392215852e-16 -1.5710156166777106e-15  46.007007090077387   46                   0.80293299000000007  0                      24                           4                          4                    0.9917345252520704   0.061363106723021366 -4.48839931629854e-22
                 239276.06487763894               -1.2935633558353673e-15             3.4152513406037184e-17              19                                   1                                       16                                     16                                  0                                      26                                6.8971896613061002e-18             17.371328973375789                     17.371328973375789                       23.182712691395626                  2.9651385284138327e-19       2.3610604392215852e-16 -1.5368631032716733e-15  45.006854762032226   45                   0.78547792500000013  0                      25                           0                          5                    0.9917345252520704   0.061363106723021366 -4.48839931629854e-22
                 174556.49629606094               -1.2947530443113633e-15            -1.1896884759959924e-18              20                                   1                                       16                                     16                                  0                                      27                                6.9255687365693532e-18             13.998408512115525                     17.371328973375789                       23.182712691395626                  3.0891631814224932e-19       2.3425263875254203e-16 -1.5362401681186169e-15  45.006854762032226   45                   0.78547792500000013  0                      26                           1                          5                    0.99133888479438326  0.060975114361827946 -3.5217307106714268e-22
                 208879.44149465128               -1.2958454809198274e-15            -1.0924366084640153e-18              21                                   1                                       17                                     17                                  0                                      28                                7.2017428055872265e-18             15.892322642974442                     17.371328973375789                       23.182712691395626                  3.2421859691754438e-19       2.3209600357827701e-16 -1.5354674459006091e-15  45.006854762032226   45                   0.78547792500000013  0                      27                           2                          5                    0.99084783555100198  0.060509615318693734  2.082055458273782e-22
                 198556.68883911497               -1.2988252365320581e-15            -2.9797556122307521e-18              23                                   1                                       17                                     18                                  1                                      30                                7.6215753151479204e-18             15.402895503282002                     17.371328973375789                       23.182712691395626                  3.6711466534199954e-19       2.2643885687240918e-16 -1.5332527833849571e-15  45.006854762032226   45                   0.78547792500000013  0                      28                           3                          5                    0.98943967952107315  0.059220332815421453 -6.1965936258148272e-24
                 191709.44706235625               -1.300465895773585e-15            -1.6406592415268369e-18              24                                   1                                       17                                     18                                  1                                      31                                7.9991597976750944e-18             15.746125669478378                     17.371328973375789                       23.182712691395626                  3.9738414757417361e-19       2.2277289684611343e-16 -1.5316353365649476e-15  45.006854762032226   45                   0.78547792500000013  0                      29                           4                          5                    0.98841096862477851  0.058295020275293583  3.3874711821121054e-23
                 191722.52463196433               -1.2664295549610305e-15             3.4036340812554392e-17              24                                   1                                       18                                     19                                  0                                      32                                7.9991597976750944e-18             15.746125669478378                     15.746125669478378                       23.182712691395626                  3.9738414757417361e-19       2.2277289684611343e-16 -1.4975989957523931e-15  44.006702433987066   44                   0.76802286000000008  0                      30                           0                          6                    0.98841096862477851  0.058295020275293583  3.3874711821121054e-23
                 222121.16650606203               -1.2669937010254381e-15            -5.641460644076052e-19              25                                   1                                       18                                     19                                  0                                      33                                8.0420007290314208e-18             16.211681735536924                     16.211681735536924                       23.182712691395626                  4.087640859081505e-19       2.2160035396551461e-16 -1.4970448198058922e-15  44.006702433987066   44                   0.76802286000000008  0                      31                           1                          6                    0.98805056267695579  0.057967029800563133  3.8171016735019338e-22
                 137800.38766639153               -1.2670348621522574e-15            -4.1161126819283335e-20              25                                   2                                       18                                     19                                  0                                      34                                7.8911219277106875e-18             15.820409538664677                     16.211681735536924                       23.182712691395626                  4.0634408601116056e-19       2.2183072565582012e-16 -1.4971630538217993e-15  44.006702433987066   44                   0.76802286000000008  0                      32                           2                          6                    0.98812746518463956  0.058036461338119738  5.5170338581838015e-22
                 132537.68782991488               -1.2680697366224516e-15            -1.0348744701941563e-18              26                                   2                                       18                                     20                                  1                                      35                                7.8479540513635851e-18             16.000371677356281                     16.211681735536924                       23.182712691395626                  4.2579799380405668e-19       2.1986587864314649e-16 -1.4962093673107657e-15  44.006702433987066   44                   0.76802286000000008  0                      33                           3                          6                    0.98750690691369292  0.057491059386759857 -3.552713678800501e-23
                 131496.79047202002               -1.2702231336544875e-15            -2.1533970320360096e-18              27                                   2                                       18                                     20                                  1                                      36                                8.0091497292079777e-18             17.5089945058286                       17.5089945058286                         23.182712691395626                  4.7965036357263786e-19       2.1480161794375301e-16 -1.4935135516910212e-15  44.006702433987066   44                   0.76802286000000008  0                      34                           4                          6                    0.985751925293192    0.055996908769847892 -3.261473778387204e-22
# Table End
