# ODT 1.0
# Table Start
# Title: mmArchive Data Table, Tue Jun 09 18:26:31 EDT 2015
# Columns: {Oxs_RungeKuttaEvolve:evolver:Total energy} {Oxs_RungeKuttaEvolve:evolver:Energy calc count} {Oxs_RungeKuttaEvolve:evolver:Max dm/dt} Oxs_RungeKuttaEvolve:evolver:dE/dt {Oxs_RungeKuttaEvolve:evolver:Delta E} Oxs_UniformExchange::Energy {Oxs_UniformExchange::Max Spin Ang} {Oxs_UniformExchange::Stage Max Spin Ang} {Oxs_UniformExchange::Run Max Spin Ang} Oxs_Demag::Energy    Oxs_FixedZeeman::Energy Oxs_TimeDriver::Iteration {Oxs_TimeDriver::Stage iteration} Oxs_TimeDriver::Stage Oxs_TimeDriver::mx   Oxs_TimeDriver::my   Oxs_TimeDriver::mz   {Oxs_TimeDriver::Last time step} {Oxs_TimeDriver::Simulation time}
# Units:                        J                                             {}                                         deg/ns                                 J/s                                   J                                 J                              deg                                    deg                                      deg                           J                       J                       {}                            {}                          {}                   {}                   {}                   {}                          s                                 s                
                       4.115022742898014e-18                            1                                            226.71299705095393                   -4.0030573433653427e-11                  0                                9.0375682025340458e-20             2.147067958637582                      2.147067958637582                        2.147067958637582              5.3857323023023776e-19   3.4860738306424358e-18      0                             0                           0                     0.96671597969290479  0.12574904561919942  3.2176626416028486e-16        0                                0                         
                       4.1150210654672582e-18                            7                                            226.71524508423417                   -4.003218574985693e-11                 -1.6774307553185936e-24              9.0376257641273576e-20             2.1470738048910847                     2.1470738048910847                       2.1470738048910847             5.3857293666223028e-19   3.4860718711637547e-18      1                             1                           0                     0.96671564907494112  0.12575019212833868 -5.3429271538857351e-05        4.1903199744057318e-14              4.1903199744057318e-14       
                       4.1150143528845447e-18                            13                                           226.87322623632355                   -4.0073377033240636e-11                 -6.7125827142502189e-24              9.0379960199803615e-20             2.1471115845331852                     2.1471115845331852                       2.1471115845331852             5.3857599960229174e-19   3.4860583930824488e-18      2                             2                           0                     0.96671337350994069  0.12575807002981826 -0.00026707376287499673        1.6761279897622927e-13              2.0951599872028658e-13       
                       4.114987294153288e-18                            19                                           229.53417364829889                   -4.0792012836932536e-11                 -2.7058731256601512e-23              9.0417283916593182e-20             2.1474928036139733                     2.1474928036139733                       2.1474928036139733             5.386556951008921e-19   3.4859143151358024e-18      3                             3                           0                     0.96668903314506349  0.12584219716198819 -0.0011204763584743672        6.7045119590491709e-13              8.7996719462520367e-13       
                       4.1149224490742285e-18                            31                                           242.6634966037081                    -4.5642133476868732e-11                 -6.4845079059555206e-23              9.0636746589784886e-20             2.149789543034585                      2.149789543034585                        2.149789543034585              5.3922641814143205e-19   3.4850592843430113e-18      4                             4                           0                     0.9665444814855837   0.12634085633921399 -0.0030402876527084416        1.5138609221593872e-12              2.393828116784591e-12       
# Table End
