# ODT 1.0
# Table Start
# Title: mmArchive Data Table, Tue Jun 08 18:15:22 EDT 2021
# Columns: {Oxs_CGEvolve::Max mxHxm} {Oxs_CGEvolve::Total energy} {Oxs_CGEvolve::Delta E} {Oxs_CGEvolve::Bracket count} {Oxs_CGEvolve::Line min count} {Oxs_CGEvolve::Conjugate cycle count} {Oxs_CGEvolve::Cycle count} {Oxs_CGEvolve::Cycle sub count} {Oxs_CGEvolve::Energy calc count} Oxs_UniformExchange::Energy {Oxs_UniformExchange::Max Spin Ang} {Oxs_UniformExchange::Stage Max Spin Ang} {Oxs_UniformExchange::Run Max Spin Ang} Oxs_Demag::Energy    Oxs_MinDriver::Iteration {Oxs_MinDriver::Stage iteration} Oxs_MinDriver::Stage Oxs_MinDriver::mx    Oxs_MinDriver::my    Oxs_MinDriver::mz
# Units:              A/m                         J                          J                         {}                             {}                                {}                               {}                            {}                               {}                              J                              deg                                    deg                                      deg                           J                       {}                           {}                         {}                 {}                   {}                   {}
              89761.150918838772          1.4828050264904434e-18       1.4828050264904434e-18        0                              0                                 1                                1                             0                                1                              0                               0                                      0                                        0                              1.4828050264904434e-18    0                            0                          0                    0.96560909917054605  0.24140227479263651  0.096560909917053989
              86546.647530862145          1.4728407382148172e-18      -9.9642882756261359e-21        1                              0                                 1                                1                             0                                2                              2.2180637489929816e-24             0.045219128364157452                    0.045219128364157452                      0.045219128364157452            1.4728385201510682e-18    1                            1                          0                    0.96568760666640718  0.24136745952877073  0.095860201902827236
              701076.35793213919          1.0072461908689809e-18      -4.6559454734583632e-19        2                              0                                 1                                1                             0                                3                              8.8835357327818355e-20             9.035088581101185                      9.035088581101185                        9.035088581101185              9.1841083354116259e-19    2                            2                          0                    0.97134619549580603  0.2319537257796567  -0.04454417870661008
              450134.7966347874           8.2374442249186164e-19      -1.8350176837711928e-19        2                              1                                 1                                1                             0                                4                              3.8372859942310822e-20             5.9435366493067656                     9.035088581101185                        9.035088581101185              7.853715625495508e-19    3                            3                          0                    0.97164860353737048  0.23575491883090086  0.0040029082257812135
              246919.14974583336          8.0030505739381008e-19      -2.3439365098051561e-20        3                              2                                 1                                2                             1                                6                              1.6069325201317695e-20             3.3059483125734173                     9.035088581101185                        9.035088581101185              7.8423573219249227e-19    4                            4                          0                    0.97184654916112068  0.23500728421818709  0.00042704732698587821
# Table End
