# ODT 1.0
# Table Start
# Title: mmArchive Data Table, Tue Jun 08 18:15:25 EDT 2021
# Columns: {Oxs_RungeKuttaEvolve:evolver:Total energy} {Oxs_RungeKuttaEvolve:evolver:Energy calc count} {Oxs_RungeKuttaEvolve:evolver:Max dm/dt} Oxs_RungeKuttaEvolve:evolver:dE/dt {Oxs_RungeKuttaEvolve:evolver:Delta E} Oxs_UniformExchange::Energy {Oxs_UniformExchange::Max Spin Ang} {Oxs_UniformExchange::Stage Max Spin Ang} {Oxs_UniformExchange::Run Max Spin Ang} Oxs_Demag::Energy    Oxs_FixedZeeman::Energy Oxs_TimeDriver::Iteration {Oxs_TimeDriver::Stage iteration} Oxs_TimeDriver::Stage Oxs_TimeDriver::mx   Oxs_TimeDriver::my   Oxs_TimeDriver::mz   {Oxs_TimeDriver::Last time step} {Oxs_TimeDriver::Simulation time}
# Units:                        J                                             {}                                         deg/ns                                 J/s                                   J                                 J                              deg                                    deg                                      deg                           J                       J                       {}                            {}                          {}                   {}                   {}                   {}                          s                                 s
                       5.8955443522276723e-18                            1                                            253.68610633317888                   -3.4112693422093202e-11                  0                                9.0375682026290676e-20             2.147067958362912                      2.147067958362912                        2.147067958362912              5.3857323022933248e-19   5.2665954399720485e-18      0                             0                           0                     0.96671597969141987  0.12574904562458797 -5.9031259592751805e-15        0                                0
                       5.8955430747690545e-18                            12                                           253.68474023925535                   -3.4113688892123217e-11                 -1.2774586175287369e-24              9.0376587728923899e-20             2.1470780882432541                     2.1470780882432541                       2.1470780882432541             5.385725170144123e-19   5.2665939700257184e-18      1                             1                           0                     0.96671576214400967  0.12574871598821727  1.0709789194462959e-05        3.7447852928623401e-14              3.7447852928623401e-14
                       5.895537963275746e-18                            23                                           253.79096432554661                   -3.4140562321445526e-11                 -5.1114933088524368e-24              9.0382456147379833e-20             2.1471438500972466                     2.1471438500972466                       2.1471438500972466             5.3857126614750225e-19   5.2665842409808637e-18      2                             2                           0                     0.96671433443007015  0.12574646575739734  5.3533811765107171e-05        1.497914117144936e-13              1.87239264643117e-13
                       5.8955208213807171e-18                            34                                           255.32443376116848                   -3.4494736064148796e-11                 -1.7141895028078171e-23              9.0428041137388771e-20             2.1476555341562027                     2.1476555341562027                       2.1476555341562027             5.3858557694517195e-19   5.2665072032981567e-18      3                             3                           0                     0.96670311404925713  0.12572817035540895  0.00019629750605021202        4.9999999999999999e-13              6.8723926464311701e-13
                       5.8955034010468139e-18                            45                                           258.20502762271093                   -3.5253848176287181e-11                 -1.742033390338079e-23              9.0513612792337757e-20             2.1486159157252716                     2.1486159157252716                       2.1486159157252716             5.386281459389695e-19   5.2663616423155065e-18      4                             4                           0                     0.966681966990244    0.12569329956873751  0.00033876466132550702        4.9999999999999999e-13              1.187239264643117e-12
# Table End
