# ODT 1.0
# Table Start
# Title: mmArchive Data Table, Fri Jan 23 00:34:07 EST 2015
# Columns: {Oxs_CGEvolve::Max mxHxm} {Oxs_CGEvolve::Total energy} {Oxs_CGEvolve::Delta E} {Oxs_CGEvolve::Bracket count} {Oxs_CGEvolve::Line min count} {Oxs_CGEvolve::Conjugate cycle count} {Oxs_CGEvolve::Cycle count} {Oxs_CGEvolve::Cycle sub count} {Oxs_CGEvolve::Energy calc count} Oxs_UniformExchange::Energy {Oxs_UniformExchange::Max Spin Ang} {Oxs_UniformExchange::Stage Max Spin Ang} {Oxs_UniformExchange::Run Max Spin Ang} Oxs_Demag::Energy    Oxs_UZeeman::Energy  Oxs_UZeeman::B       Oxs_UZeeman::Bx      Oxs_UZeeman::By      Oxs_UZeeman::Bz      Oxs_MinDriver::Iteration {Oxs_MinDriver::Stage iteration} Oxs_MinDriver::Stage Oxs_MinDriver::mx    Oxs_MinDriver::my    Oxs_MinDriver::mz    Oxs_UZeeman::Bapplied Oxs_MinDriver::m_dot_u
# Units:              A/m                         J                          J                         {}                             {}                                {}                               {}                            {}                               {}                              J                              deg                                    deg                                      deg                           J                     J                 mT                   mT                   mT                   mT                        {}                           {}                         {}                 {}                   {}                   {}                     mT                     {}          
              339491.30541239458         -2.6015523058990904e-018      -2.6015523058990904e-018        0                              0                                 1                                1                             0                                1                              0                               0                                      0                                        0                              6.631455962182493e-017 -6.8916111927724003e-017  173.20508075688772   100                  100                  100                    0                            0                          0                    0.57735026919029486  0.57735026919029486  0.57735026919029486  173.20508075674539     1.0000000000000822  
              339164.0443315361          -2.7226384038455268e-018      -1.2108609794643637e-019        1                              0                                 1                                1                             0                                2                              5.4536321131332733e-024             0.016864903123207819                    0.016864903123207819                      0.016864903123207819            6.6193446609521279e-017 -6.8916090466998909e-017  173.20508075688772   100                  100                  100                    1                            1                          0                    0.57771797389627133  0.57760767555922943  0.57672461874725744  173.20508075674539     0.99999968859588917 
              315516.19331367285         -2.4100566690787114e-017      -2.1377928286941587e-017        2                              0                                 1                                1                             0                                3                              2.1840551157239683e-019             3.4032462384642201                     3.4032462384642201                       3.4032462384642201             4.3738346278256436e-017 -6.8057318480615937e-017  173.20508075688772   100                  100                  100                    2                            2                          0                    0.64353898310815216  0.62150730798054543  0.44542068300581844  173.20508075674539     0.98753856793250627 
              1200524.5733528535         -3.6674240930004448e-017      -1.2573674239217333e-017        3                              0                                 2                                2                             0                                4                              5.9589930807378783e-019             5.8825861484585245                     5.8825861484585245                       5.8825861484585245             2.8797012138474849e-017 -6.6067152376553081e-017  173.20508075688772   100                  100                  100                    3                            3                          0                    0.69025180913905104  0.6428769500016186   0.32731988525825678  173.20508075674539     0.95866047181835912 
              1165018.6100618884         -3.8708552828829131e-017      -2.0343118988246835e-018        4                              0                                 3                                3                             0                                5                              4.7624064042538135e-019             5.8053832664878415                     5.8825861484585245                       5.8825861484585245             2.6411360360932127e-017 -6.5596153830186637e-017  173.20508075688772   100                  100                  100                    4                            4                          0                    0.69846991643637379  0.64445477804734008  0.30568646533026583  173.20508075674539     0.9518260969067327  
              1164931.2016451703         -3.5428745137319792e-017       3.2798076915093386e-018        4                              0                                 4                                4                             0                                6                              4.7624064042538135e-019             5.8053832664878415                     5.8053832664878415                       5.8825861484585245             2.6411360360932127e-017 -6.2316346138677292e-017  164.54482671904336   95                   95                   95                     5                            0                          1                    0.69846991643637379  0.64445477804734008  0.30568646533026583  164.54482671899348     0.9518260969067327  
              1923102.6732657107         -3.6568185948096018e-017      -1.1394408107762261e-018        5                              0                                 4                                4                             0                                7                              9.0011144605634382e-019             8.6727160842157733                     8.6727160842157733                       8.6727160842157733             2.4386792313135808e-017 -6.1855089707288186e-017  164.54482671904336   95                   95                   95                     6                            1                          1                    0.70608660868737627  0.64528777527037484  0.28503399845602789  164.54482671899348     0.94478082008987618 
              1372938.9621501989         -3.6636103368898919e-017      -6.7917420802900458e-020        5                              1                                 4                                4                             0                                8                              5.4777138600131378e-019             6.4444719196067846                     8.6727160842157733                       8.6727160842157733             2.4764032670064821e-017 -6.194790742496505e-017  164.54482671904336   95                   95                   95                     7                            2                          1                    0.70467618635834073  0.64517101022965229  0.2890167265413861   164.54482671899348     0.94619852718302433 
              1240168.4355804101         -3.9437548136774024e-017      -2.8014447678751048e-018        6                              1                                 4                                5                             1                                9                              6.4873884106385757e-019             8.6537864854831721                     8.6727160842157733                       8.6727160842157733             2.0797911187872308e-017 -6.0884198165710189e-017  164.54482671904336   95                   95                   95                     8                            3                          1                    0.72003374493061478  0.645772027159766    0.24491717255956072  164.54482671899348     0.92995132568268113 
              2202650.4987767763         -4.0601877552778817e-017      -1.1643294160047928e-018        7                              1                                 4                                5                             1                                10                             1.2968575761095624e-018             12.074818530330621                     12.074818530330621                       12.074818530330621             1.8016167025674495e-017 -5.9914902154562864e-017  164.54482671904336   95                   95                   95                     9                            4                          1                    0.73124801746494006  0.64515108271414656  0.20868061728959225  164.54482671899348     0.91514620156670401 
              2202306.838810835          -3.7448461649907092e-017       3.1534159028717248e-018        7                              1                                 5                                6                             0                                11                             1.2968575761095624e-018             12.074818530330621                     12.074818530330621                       12.074818530330621             1.8016167025674495e-017 -5.6761486251691158e-017  155.88457268119896   90                   90                   90                     10                           0                          2                    0.73124801746494006  0.64515108271414656  0.20868061728959225  155.88457268104966     0.91514620156670401 
              2171245.4872286278         -3.867794365932937e-017      -1.2294820094222785e-018        8                              1                                 5                                6                             0                                12                             4.0095268036379646e-019             8.2615339733923214                     12.074818530330621                       12.074818530330621             1.7527302491386095e-017 -5.6606198831079263e-017  155.88457268119896   90                   90                   90                     11                           1                          2                    0.73377672596514198  0.64433293861128538  0.20263361004968988  155.88457268104966     0.91264255512421699 
              1750167.8527106163         -3.869330017068601e-017      -1.5356511356639947e-020        8                              2                                 5                                6                             0                                13                             3.5529485812930671e-019             6.7972526866549901                     12.074818530330621                       12.074818530330621             1.757426662152828e-017 -5.6622861650343605e-017  155.88457268119896   90                   90                   90                     12                           2                          2                    0.7335389723001754   0.6444265443681324   0.20324307165192701  155.88457268104966     0.91291120411078164 
              2107408.5374282994         -3.9082052121413743e-017      -3.8875195072773336e-019        9                              2                                 5                                7                             1                                14                             3.3963936236521966e-019             8.5725643468685728                     12.074818530330621                       12.074818530330621             1.6980477941071784e-017 -5.6402169424850752e-017  155.88457268119896   90                   90                   90                     13                           3                          2                    0.73675934218386074  0.643101607169418    0.19518474941749642  155.88457268104966     0.90935305817041501 
              2608133.5602428257         -3.9087413507261627e-017      -5.3613858478837734e-021        10                             3                                 5                                7                             1                                16                             3.8114315818996507e-019             10.288299898978444                     12.074818530330621                       12.074818530330621             1.6903749672443167e-017 -5.6372306337894755e-017  155.88457268119896   90                   90                   90                     14                           4                          2                    0.73717697627509726  0.64291918563308081  0.19411560215510354  155.88457268104966     0.90887158574255267 
              2607802.2202979            -3.5955618710711913e-017       3.1317947965497141e-018        10                             3                                 6                                8                             0                                17                             3.8114315818996507e-019             10.288299898978444                     10.288299898978444                       12.074818530330621             1.6903749672443167e-017 -5.3240511541345053e-017  147.22431864335456   85                   85                   85                     15                           0                          3                    0.73717697627509726  0.64291918563308081  0.19411560215510354  147.22431864334186     0.90887158574255267 
              2857740.5058980025         -3.623550112204683e-017      -2.7988241133491662e-019        11                             3                                 6                                8                             0                                18                             3.0221690833002706e-019             10.088496340327952                     10.288299898978444                       12.074818530330621             1.6580210370276255e-017 -5.3117928400653112e-017  147.22431864335456   85                   85                   85                     16                           1                          3                    0.73908624829895209  0.64204707602529565  0.1894539099107832   147.22431864334186     0.90677896247052292 
              2573137.460655469          -3.6417865058274879e-017      -1.8236393622804891e-019        12                             3                                 7                                9                             0                                19                             2.9329186950334142e-019             10.352453305275217                     10.352453305275217                       12.074818530330621             1.6297997207433863e-017 -5.3009154135212085e-017  147.22431864335456   85                   85                   85                     17                           2                          3                    0.74076830458732701  0.64121389170399856  0.18538880798408208  147.22431864334186     0.90492207123757362 
              2957517.1602544896         -3.657755843213573e-017      -1.5969337386085169e-019        13                             3                                 8                                10                            0                                20                             3.1324697363595661e-019             11.362554568281713                     11.362554568281713                       12.074818530330621             1.6000958961806002e-017 -5.2891764367577692e-017  147.22431864335456   85                   85                   85                     18                           3                          3                    0.74258278643039344  0.64025750981994278  0.18105973549229967  147.22431864334186     0.90291810431142894 
              2379471.8241349077         -3.6579876257281277e-017      -2.3178251455468618e-021        13                             4                                 8                                10                            0                                21                             2.921300740722024e-019             9.5367671784419272                     11.362554568281713                       12.074818530330621             1.6032451567994932e-017 -5.2904457899348414e-017  147.22431864335456   85                   85                   85                     19                           4                          3                    0.74239027435027927  0.64036137653784475  0.18152370232424536  147.22431864334186     0.9031347962630164  
              2379028.3565497068         -3.3467849322025491e-017       3.1120269352557858e-018        13                             4                                 9                                11                            0                                22                             2.921300740722024e-019             9.5367671784419272                     9.5367671784419272                       12.074818530330621             1.6032451567994932e-017 -4.9792430964092622e-017  138.5640646055102    80                   80                   80                     20                           0                          4                    0.74239027435027927  0.64036137653784475  0.18152370232424536  138.56406460541891     0.9031347962630164  
              3226688.0028308537         -3.3619722747110277e-017      -1.5187342508478545e-019        14                             4                                 9                                11                            0                                23                             3.3633564776536086e-019             12.985679720668509                     12.985679720668509                       12.985679720668509             1.5715092716050968e-017 -4.9671151110926612e-017  138.5640646055102    80                   80                   80                     21                           1                          4                    0.74434587436733857  0.63929711787178611  0.17682224201589719  138.56406460541891     0.90093502305732964 
              2204336.1284774602         -3.3628078092959519e-017      -8.3553458492421448e-021        14                             5                                 9                                11                            0                                24                             2.9221868822307095e-019             9.5850914566253014                     12.985679720668509                       12.985679720668509             1.577369177244717e-017 -4.9693988553629764e-017  138.5640646055102    80                   80                   80                     22                           2                          4                    0.74398443440070061  0.63949834550926909  0.17769991376727901  138.56406460541891     0.90134924844789033 
              2388491.7165300972         -3.3997606935730004e-017      -3.6952884277048509e-019        15                             5                                 9                                12                            1                                25                             2.8813748693737064e-019             9.8589458900822571                     12.985679720668509                       12.985679720668509             1.5166980205924661e-017 -4.9452724628592037e-017  138.5640646055102    80                   80                   80                     23                           3                          4                    0.7478087717087144   0.63731297021211308  0.16848142201168495  138.56406460541891     0.89697320490943522 
              3677558.3991925963         -3.5487965861844783e-017      -1.4903589261147786e-018        16                             5                                 9                                12                            1                                26                             4.3695583027279282e-019             14.546990415741872                     14.546990415741872                       14.546990415741872             1.1732382830623818e-017 -4.7657304522741395e-017  138.5640646055102    80                   80                   80                     24                           4                          4                    0.77154194281703647  0.62052579875931979  0.10513063620964504  138.56406460541891     0.86440788644420286 
              3677293.8852492627         -3.250938432917344e-017       2.9785815326713426e-018        16                             5                                 10                               13                            0                                27                             4.3695583027279282e-019             14.546990415741872                     14.546990415741872                       14.546990415741872             1.1732382830623818e-017 -4.4678722990070052e-017  129.9038105676658    75                   75                   75                     25                           0                          5                    0.77154194281703647  0.62052579875931979  0.10513063620964504  129.90381056753111     0.86440788644420286 
              1694674.0882380223         -3.2656702206848267e-017      -1.4731787767482734e-019        17                             5                                 10                               13                            0                                28                             3.1813115555965818e-019             8.0628502342942969                     14.546990415741872                       14.546990415741872             1.1679960371847157e-017 -4.4654793734255084e-017  129.9038105676658    75                   75                   75                     26                           1                          5                    0.77231533925208662  0.61962349526532501  0.10445766620965841  129.90381056753111     0.86394492250837085 
              444250.09256023727         -3.2686697506084242e-017      -2.9995299235974016e-020        17                             6                                 10                               13                            0                                29                             2.8033381062834018e-019             3.6628784130254166                     14.546990415741872                       14.546990415741872             1.1694979951859896e-017 -4.4662011268572482e-017  129.9038105676658    75                   75                   75                     27                           2                          5                    0.77209317266666977  0.61989000595724331  0.10465518399957424  129.90381056753111     0.86408456153937618 
              328027.78350207326         -3.2713794374836725e-017      -2.7096868752482997e-020        18                             6                                 10                               14                            1                                30                             2.7884116078905735e-019             3.3568396215627496                     14.546990415741872                       14.546990415741872             1.1646672882881184e-017 -4.4639308418506964e-017  129.9038105676658    75                   75                   75                     28                           3                          5                    0.77281457081704541  0.61903326646843349  0.10402974553020319  129.90381056753111     0.86364532511255265 
              2445993.0954531385         -3.2732319804651088e-017      -1.8525429814363686e-020        19                             6                                 10                               14                            1                                31                             3.9302492373323523e-019             10.451010332402072                     14.546990415741872                       14.546990415741872             1.13888567054748e-017 -4.4514201433859124e-017  129.9038105676658    75                   75                   75                     29                           4                          5                    0.77668264300445922  0.61436562954154039  0.10063693497492932  129.90381056753111     0.86122485610758281 
              2444955.6230734144         -2.976470637572714e-017       2.9676134289239482e-018        19                             6                                 11                               15                            0                                32                             3.9302492373323523e-019             10.451010332402072                     10.451010332402072                       14.546990415741872             1.13888567054748e-017 -4.1546588004935176e-017  121.2435565298214    70                   70                   70                     30                           0                          6                    0.77668264300445922  0.61436562954154039  0.10063693497492932  121.24355652980923     0.86122485610758281 
              378655.97807722399         -2.9889014288277102e-017      -1.2430791254996243e-019        20                             7                                 11                               15                            0                                34                             2.8802572665950307e-019             3.5920838833765485                     10.451010332402072                       14.546990415741872             1.1352385543745704e-017 -4.1529425558682311e-017  121.2435565298214    70                   70                   70                     31                           1                          6                    0.77723783540010205  0.61370568272436776  0.10012549036714349  121.24355652980923     0.86086909343213069 
              314872.75589781505         -2.9918447252529567e-017      -2.9432964252464634e-020        21                             7                                 11                               16                            1                                35                             2.8403400466677044e-019             3.3652800753438439                     10.451010332402072                       14.546990415741872             1.1302889237695329e-017 -4.150537049489167e-017  121.2435565298214    70                   70                   70                     32                           2                          6                    0.77799846380316107  0.61278130851858981  0.099425565179171324  121.24355652980923     0.86037045275315516 
              1800235.0276588534         -2.9930425914481874e-017      -1.1978661952307327e-020        22                             7                                 11                               16                            1                                36                             3.5167018550477292e-019             7.7901586258750912                     10.451010332402072                       14.546990415741872             1.1144206980032236e-017 -4.1426303080018882e-017  121.2435565298214    70                   70                   70                     33                           3                          6                    0.78044790232491368  0.60976742514128113  0.097151180209541596  121.24355652980923     0.8587314535894065  
              1146594.4032749275         -2.9940953816854754e-017      -1.052790237287958e-020        22                             8                                 11                               16                            1                                37                             3.0934350871979911e-019             5.8688396083165406                     10.451010332402072                       14.546990415741872             1.1208312278608128e-017 -4.1458609604182684e-017  121.2435565298214    70                   70                   70                     34                           4                          6                    0.77945629801492622  0.61099443324122127  0.098075707150749036  121.24355652980923     0.8594011399092748  
# Table End
