# ODT 1.0
# Table Start
# Title: mmArchive Data Table, Wed Jun 16 18:46:06 EDT 2010
# Columns: {Oxs_RungeKuttaEvolve:evolver:Total energy} {Oxs_RungeKuttaEvolve:evolver:Energy calc count} {Oxs_RungeKuttaEvolve:evolver:Max dm/dt} Oxs_RungeKuttaEvolve:evolver:dE/dt {Oxs_RungeKuttaEvolve:evolver:Delta E} Oxs_UniformExchange::Energy {Oxs_UniformExchange::Max Spin Ang} {Oxs_UniformExchange::Stage Max Spin Ang} {Oxs_UniformExchange::Run Max Spin Ang} Oxs_Demag::Energy    Oxs_FixedZeeman::Energy Oxs_TimeDriver::Iteration {Oxs_TimeDriver::Stage iteration} Oxs_TimeDriver::Stage Oxs_TimeDriver::mx   Oxs_TimeDriver::my   Oxs_TimeDriver::mz   {Oxs_TimeDriver::Last time step} {Oxs_TimeDriver::Simulation time}
# Units:                        J                                             {}                                         deg/ns                                 J/s                                   J                                 J                              deg                                    deg                                      deg                           J                       J                       {}                            {}                          {}                   {}                   {}                   {}                          s                                 s                
                       5.8955443522373281e-18                            1                                            253.68610745042446                   -3.411269342171774e-11                  0                                9.0375682025340458e-20             2.1470679586377686                     2.1470679586377686                       2.1470679586377686             5.3857323023712576e-19   5.2665954399748619e-18      0                             0                           0                     0.96671597969290479  0.12574904561919942  3.2176626416028486e-16        0                                0                         
                       5.8955430747787165e-18                            7                                            253.68474133560716                   -3.4113688891738533e-11                 -1.277458611935943e-24              9.0376587727969348e-20             2.1470780885141285                     2.1470780885141285                       2.1470780885141285             5.3857251702220827e-19   5.2665939700285388e-18      1                             1                           0                     0.96671576214549548  0.1257487159828303   1.0709789154021896e-05        3.7447852763701287e-14              3.7447852763701287e-14       
                       5.8955379632854327e-18                            13                                           253.7909651274914                    -3.4140562321106356e-11                 -5.1114932840948177e-24              9.0382456146401448e-20             2.1471438502943485                     2.1471438502943485                       2.1471438502943485             5.3857126615528407e-19   5.2665842409837472e-18      2                             2                           0                     0.96671433443156474  0.12574646575202511  5.3533811538021033e-05        1.4979141105480515e-13              1.8723926381850646e-13       
# Table End
