# ODT 1.0
# Table Start
# Title: mmArchive Data Table, Tue Jun 09 18:26:28 EDT 2015
# Columns: {Oxs_CGEvolve::Max mxHxm} {Oxs_CGEvolve::Total energy} {Oxs_CGEvolve::Delta E} {Oxs_CGEvolve::Bracket count} {Oxs_CGEvolve::Line min count} {Oxs_CGEvolve::Conjugate cycle count} {Oxs_CGEvolve::Cycle count} {Oxs_CGEvolve::Cycle sub count} {Oxs_CGEvolve::Energy calc count} Oxs_UniformExchange::Energy {Oxs_UniformExchange::Max Spin Ang} {Oxs_UniformExchange::Stage Max Spin Ang} {Oxs_UniformExchange::Run Max Spin Ang} Oxs_Demag::Energy    Oxs_MinDriver::Iteration {Oxs_MinDriver::Stage iteration} Oxs_MinDriver::Stage Oxs_MinDriver::mx    Oxs_MinDriver::my    Oxs_MinDriver::mz   
# Units:              A/m                         J                          J                         {}                             {}                                {}                               {}                            {}                               {}                              J                              deg                                    deg                                      deg                           J                       {}                           {}                         {}                 {}                   {}                   {}           
              89761.15091883998           1.4828050264904016e-18       1.4828050264904016e-18        0                              0                                 1                                1                             0                                1                              0                               0                                      0                                        0                              1.4828050264904016e-18    0                            0                          0                    0.96560909917053517  0.24140227479263379  0.096560909917053517
              86546.647530863294          1.4728407382147754e-18      -9.9642882756261223e-21        1                              0                                 1                                1                             0                                2                              2.2180637489928799e-24             0.045219128364157715                    0.045219128364157715                      0.045219128364157715            1.4728385201510264e-18    1                            1                          0                    0.96568760666640718  0.2413674595287707   0.095860201902827236
              701076.35793212801          1.0072461908689229e-18      -4.655945473458524e-19        2                              0                                 1                                1                             0                                3                              8.8835357327815611e-20             9.0350885811010517                     9.0350885811010517                       9.0350885811010517             9.1841083354110731e-19    2                            2                          0                    0.97134619549580625  0.2319537257796567  -0.044544178706608005
              450134.79663478909          8.2374442249182004e-19      -1.8350176837710296e-19        2                              1                                 1                                1                             0                                4                              3.8372859942310792e-20             5.9435366493067665                     9.0350885811010517                       9.0350885811010517             7.853715625495092e-19    3                            3                          0                    0.97164860353737026  0.23575491883090069  0.0040029082257811779
              246919.14974583429          8.0030505739376829e-19      -2.3439365098051672e-20        3                              2                                 1                                2                             1                                6                              1.6069325201317734e-20             3.3059483125734292                     9.0350885811010517                       9.0350885811010517             7.8423573219245057e-19    4                            4                          0                    0.97184654916112057  0.23500728421818701  0.00042704732698584271
# Table End
