# ODT 1.0
# Table Start
# Title: mmArchive Data Table, Tue Jun 08 18:15:22 EDT 2021
# Columns: {Oxs_RungeKuttaEvolve:evolver:Total energy} {Oxs_RungeKuttaEvolve:evolver:Energy calc count} {Oxs_RungeKuttaEvolve:evolver:Max dm/dt} Oxs_RungeKuttaEvolve:evolver:dE/dt {Oxs_RungeKuttaEvolve:evolver:Delta E} Oxs_UniformExchange::Energy {Oxs_UniformExchange::Max Spin Ang} {Oxs_UniformExchange::Stage Max Spin Ang} {Oxs_UniformExchange::Run Max Spin Ang} Oxs_Demag::Energy    Oxs_FixedZeeman::Energy Oxs_TimeDriver::Iteration {Oxs_TimeDriver::Stage iteration} Oxs_TimeDriver::Stage Oxs_TimeDriver::mx   Oxs_TimeDriver::my   Oxs_TimeDriver::mz   {Oxs_TimeDriver::Last time step} {Oxs_TimeDriver::Simulation time}
# Units:                        J                                             {}                                         deg/ns                                 J/s                                   J                                 J                              deg                                    deg                                      deg                           J                       J                       {}                            {}                          {}                   {}                   {}                   {}                          s                                 s
                       4.1150227428891047e-18                            1                                            226.71299593264771                   -4.0030573433772819e-11                  0                                9.0375682026290676e-20             2.147067958362912                      2.147067958362912                        2.147067958362912              5.3857323022933248e-19   3.4860738306334817e-18      0                             0                           0                     0.96671597969141987  0.12574904562458797 -5.9031259592751805e-15        0                                0
                       4.1150210654459751e-18                            3                                            226.7152499468036                    -4.0032185756074549e-11                 -1.6774431297115371e-24              9.0376257643715523e-20             2.1470738046737767                     2.1470738046737767                       2.1470738046737767             5.3857293665995865e-19   3.4860718711423014e-18      1                             1                           0                     0.96671564907139207  0.12575019214129873 -5.3429273704131502e-05        4.190319995075305e-14              4.190319995075305e-14
                       4.1150143520894314e-18                            5                                            226.87470060980303                   -4.0073379073271816e-11                 -6.7133565437246952e-24              9.0379959976395188e-20             2.1471115871371738                     2.1471115871371738                       2.1471115871371738             5.385759998654095e-19   3.4860583922476267e-18      2                             2                           0                     0.96671337337149532  0.12575807053208021 -0.00026707388747353942        1.676127998030122e-13              2.0951599975376525e-13
                       4.1149942035474543e-18                            7                                            228.73157539190441                   -4.0525729442059812e-11                 -2.0148541976942081e-23              9.040432878974052e-20             2.1473610571323718                     2.1473610571323718                       2.1473610571323718             5.3862528593354067e-19   3.4859645888241735e-18      3                             3                           0                     0.96669752748234306  0.12581284897003572 -0.00090369607332269292        4.9999999999999999e-13              7.0951599975376524e-13
                       4.1149737062543481e-18                            9                                            231.97010890321968                   -4.1468789575489235e-11                 -2.0497293106668032e-23              9.0448887121734688e-20             2.1478152574223048                     2.1478152574223048                       2.1478152574223048             5.3873420236604172e-19   3.4857906167665714e-18      4                             4                           0                     0.96666812990180395  0.12591439158307752 -0.0015392584322394252        4.9999999999999999e-13              1.2095159997537651e-12
# Table End
