# ODT 1.0
# Table Start
# Title: mmArchive Data Table, Tue Jun 08 18:15:25 EDT 2021
# Columns: {Oxs_RungeKuttaEvolve:evolver:Total energy} {Oxs_RungeKuttaEvolve:evolver:Energy calc count} {Oxs_RungeKuttaEvolve:evolver:Max dm/dt} Oxs_RungeKuttaEvolve:evolver:dE/dt {Oxs_RungeKuttaEvolve:evolver:Delta E} Oxs_UniformExchange::Energy {Oxs_UniformExchange::Max Spin Ang} {Oxs_UniformExchange::Stage Max Spin Ang} {Oxs_UniformExchange::Run Max Spin Ang} Oxs_Demag::Energy    Oxs_FixedZeeman::Energy Oxs_TimeDriver::Iteration {Oxs_TimeDriver::Stage iteration} Oxs_TimeDriver::Stage Oxs_TimeDriver::mx   Oxs_TimeDriver::my   Oxs_TimeDriver::mz   {Oxs_TimeDriver::Last time step} {Oxs_TimeDriver::Simulation time}
# Units:                        J                                             {}                                         deg/ns                                 J/s                                   J                                 J                              deg                                    deg                                      deg                           J                       J                       {}                            {}                          {}                   {}                   {}                   {}                          s                                 s
                       5.8955443522276723e-18                            1                                            253.68610633317888                   -3.4112693422093202e-11                  0                                9.0375682026290676e-20             2.147067958362912                      2.147067958362912                        2.147067958362912              5.3857323022933248e-19   5.2665954399720485e-18      0                             0                           0                     0.96671597969141987  0.12574904562458797 -5.9031259592751805e-15        0                                0
                       5.8955430747690545e-18                            7                                            253.6847402393158                    -3.4113688892123275e-11                 -1.2774586174706884e-24              9.0376587728923983e-20             2.1470780882432581                     2.1470780882432581                       2.1470780882432581             5.385725170144123e-19   5.2665939700257184e-18      1                             1                           0                     0.96671576214400967  0.1257487159882173   1.0709789194462856e-05        3.7447852928623401e-14              3.7447852928623401e-14
                       5.8955379632757476e-18                            13                                           253.79096441878914                   -3.4140562321729688e-11                 -5.1114933067214228e-24              9.0382456147393242e-20             2.1471438500974269                     2.1471438500974269                       2.1471438500974269             5.3857126614749156e-19   5.2665842409808629e-18      2                             2                           0                     0.96671433443006982  0.12574646575739742  5.3533811764992212e-05        1.497914117144936e-13              1.87239264643117e-13
                       5.8955208213837924e-18                            19                                           255.32474714274758                   -3.4494736518836627e-11                 -1.7141891955461484e-23              9.042804113203956e-20             2.1476555355929023                     2.1476555355929023                       2.1476555355929023             5.3858557695467728e-19   5.2665072032970751e-18      3                             3                           0                     0.96670311404902198  0.12572817035558984  0.00019629750598809773        4.9999999999999999e-13              6.8723926464311701e-13
                       5.895503401052383e-18                            25                                           258.20685524087861                   -3.5253849406020492e-11                 -1.7420331409164534e-23              9.0513612689489872e-20             2.1486158916636913                     2.1486158916636913                       2.1486158916636913             5.3862814605348452e-19   5.2663616423094082e-18      4                             4                           0                     0.96668196698892417  0.12569329956972169  0.00033876466139120658        4.9999999999999999e-13              1.187239264643117e-12
# Table End
