# ODT 1.0
# Table Start
# Title: mmArchive Data Table, Tue Jun 09 18:28:28 EDT 2015
# Columns: {Oxs_EulerEvolve:evolver:Total energy} {Oxs_EulerEvolve:evolver:Energy calc count} {Oxs_EulerEvolve:evolver:Max dm/dt} Oxs_EulerEvolve:evolver:dE/dt {Oxs_EulerEvolve:evolver:Delta E} Oxs_UniformExchange::Energy {Oxs_UniformExchange::Max Spin Ang} {Oxs_UniformExchange::Stage Max Spin Ang} {Oxs_UniformExchange::Run Max Spin Ang} Oxs_Demag::Energy    Oxs_FixedZeeman::Energy Oxs_TimeDriver::Iteration {Oxs_TimeDriver::Stage iteration} Oxs_TimeDriver::Stage Oxs_TimeDriver::mx   Oxs_TimeDriver::my   Oxs_TimeDriver::mz   {Oxs_TimeDriver::Last time step} {Oxs_TimeDriver::Simulation time}
# Units:                     J                                        {}                                    deg/ns                             J/s                              J                              J                              deg                                    deg                                      deg                           J                       J                       {}                            {}                          {}                   {}                   {}                   {}                          s                                 s                
                     4.115022742898014e-18                      1                                       226.71299705095393              -4.0030573433653427e-11             0                              9.0375682025340458e-20             2.147067958637582                      2.147067958637582                        2.147067958637582              5.3857323023023776e-19   3.4860738306424358e-18      0                             0                           0                     0.96671597969290479  0.12574904561919942  3.2176626416028486e-16        0                                0                         
                     4.1150212831724956e-18                      2                                       226.71048266779349              -4.0032383681693471e-11            -1.4597255181794876e-24            9.037621490559932e-20             2.1470733483603057                     2.1470733483603057                       2.1470733483603057             5.385730099091442e-19   3.486072058357752e-18      1                             1                           0                     0.96671567989160789  0.1257500782050878  -5.6245148270607795e-05        4.4108631309534019e-14              4.4108631309534019e-14       
                     4.115019695074907e-18                      3                                       226.72669246673794              -4.0038942516828878e-11            -1.5880975884094218e-24            9.0376981805050322e-20             2.14708113320853                       2.14708113320853                         2.14708113320853               5.3857332783763692e-19   3.4860693854322198e-18      2                             2                           0                     0.96671522775480134  0.12575163563255404 -0.00011892575546931248        4.916246193901962e-14              9.3271093248553639e-14       
                     4.1150181063587529e-18                      4                                       226.76364433084032              -4.0050286117930756e-11            -1.5887161540008862e-24            9.0377941521913425e-20             2.1470909012044994                     2.1470909012044994                       2.1470909012044994             5.3857422930055969e-19   3.4860659355362805e-18      3                             3                           0                     0.96671464432346976  0.12575364653848634 -0.00018160562798398349        4.9169712864519862e-14              1.424408061130735e-13       
                     4.1150165167930881e-18                      5                                       226.82123471854391              -4.0066414069405289e-11            -1.589565664913761e-24            9.0379094154319528e-20             2.1471026527257444                     2.1471026527257444                       2.1471026527257444             5.3857571418040508e-19   3.4860617084583637e-18      4                             4                           0                     0.96671392956072311  0.12575611103985271 -0.00024428451013464708        4.9176782135781109e-14              1.9161758824885462e-13       
# Table End
