# ODT 1.0
# Table Start
# Title: mmArchive Data Table, Tue Jun 09 18:26:33 EDT 2015
# Columns: {Oxs_RungeKuttaEvolve:evolver:Total energy} {Oxs_RungeKuttaEvolve:evolver:Energy calc count} {Oxs_RungeKuttaEvolve:evolver:Max dm/dt} Oxs_RungeKuttaEvolve:evolver:dE/dt {Oxs_RungeKuttaEvolve:evolver:Delta E} Oxs_UniformExchange::Energy {Oxs_UniformExchange::Max Spin Ang} {Oxs_UniformExchange::Stage Max Spin Ang} {Oxs_UniformExchange::Run Max Spin Ang} Oxs_Demag::Energy    Oxs_FixedZeeman::Energy Oxs_TimeDriver::Iteration {Oxs_TimeDriver::Stage iteration} Oxs_TimeDriver::Stage Oxs_TimeDriver::mx   Oxs_TimeDriver::my   Oxs_TimeDriver::mz   {Oxs_TimeDriver::Last time step} {Oxs_TimeDriver::Simulation time}
# Units:                        J                                             {}                                         deg/ns                                 J/s                                   J                                 J                              deg                                    deg                                      deg                           J                       J                       {}                            {}                          {}                   {}                   {}                   {}                          s                                 s                
                       5.8955443522304402e-18                            1                                            253.6861074499482                    -3.4112693421633348e-11                  0                                9.0375682025340458e-20             2.147067958637582                      2.147067958637582                        2.147067958637582              5.3857323023023776e-19   5.2665954399748619e-18      0                             0                           0                     0.96671597969290479  0.12574904561919942  3.2176626416028486e-16        0                                0                         
                       5.8955430747643984e-18                            3                                            253.68474404444632                   -3.4113688893576237e-11                 -1.2774660419052174e-24              9.0376587734582859e-20             2.1470780885759453                     2.1470780885759453                       2.1470780885759453             5.3857251700877771e-19   5.2665939700210377e-18      1                             1                           0                     0.96671576214445387  0.12574871598076201  1.0709790884135887e-05        3.7447852763771591e-14              3.7447852763771591e-14       
                       5.8955379628058646e-18                            5                                            253.79172035749934                   -3.4140563238424181e-11                 -5.1119585340658903e-24              9.0382456553548263e-20             2.1471438540017469                     2.1471438540017469                       2.1471438540017469             5.3857126576424893e-19   5.2665842404880667e-18      2                             2                           0                     0.96671433436245036  0.12574646561695041  5.3533923946394014e-05        1.4979141105508636e-13              1.8723926381885795e-13       
                       5.895518830899908e-18                            7                                            255.73037870271662                   -3.4561061634702295e-11                 -1.9131905956071273e-23              9.0435794569898583e-20             2.1477425464792059                     2.1477425464792059                       2.1477425464792059             5.3858899412459416e-19   5.2664940422054153e-18      3                             3                           0                     0.96670120072746313  0.12572502468960159  0.00021255926666748239        5.5699763680474591e-13              7.4423690062360391e-13       
                       5.8955011688820453e-18                            11                                           258.94316763235082                   -3.5376694813197877e-11                 -1.766201786267074e-23              9.0527070488473299e-20             2.1487672862612608                     2.1487672862612608                       2.1487672862612608             5.3863536908939441e-19   5.2663387293041781e-18      4                             4                           0                     0.96667864017177496  0.12568779935394273  0.00035644867929246292        5.0510714894223585e-13              1.2493440495658398e-12       
# Table End
