# ODT 1.0
# Table Start
# Title: mmArchive Data Table, Tue Jun 08 18:15:24 EDT 2021
# Columns: {Oxs_EulerEvolve:evolver:Total energy} {Oxs_EulerEvolve:evolver:Energy calc count} {Oxs_EulerEvolve:evolver:Max dm/dt} Oxs_EulerEvolve:evolver:dE/dt {Oxs_EulerEvolve:evolver:Delta E} Oxs_UniformExchange::Energy {Oxs_UniformExchange::Max Spin Ang} {Oxs_UniformExchange::Stage Max Spin Ang} {Oxs_UniformExchange::Run Max Spin Ang} Oxs_Demag::Energy    Oxs_FixedZeeman::Energy Oxs_TimeDriver::Iteration {Oxs_TimeDriver::Stage iteration} Oxs_TimeDriver::Stage Oxs_TimeDriver::mx   Oxs_TimeDriver::my   Oxs_TimeDriver::mz   {Oxs_TimeDriver::Last time step} {Oxs_TimeDriver::Simulation time}
# Units:                     J                                        {}                                    deg/ns                             J/s                              J                              J                              deg                                    deg                                      deg                           J                       J                       {}                            {}                          {}                   {}                   {}                   {}                          s                                 s
                     5.8955443522276723e-18                      1                                       253.68610633317894              -3.4112693422093202e-11             0                              9.0375682026290676e-20             2.147067958362912                      2.147067958362912                        2.147067958362912              5.3857323022933248e-19   5.2665954399720485e-18      0                             0                           0                     0.96671597969141987  0.12574904562458797 -5.9031259592751805e-15        0                                0
                     5.8955432132565616e-18                      2                                       253.68176007173699              -3.4113824238608755e-11            -1.1389711105212656e-24            9.037652123406609e-20             2.1470773268989856                     2.1470773268989856                       2.1470773268989856             5.3857260432845209e-19   5.266594087694043e-18      1                             1                           0                     0.96671577872410985  0.12574874707741573  1.1274250871752851e-05        3.9418792556445684e-14              3.9418792556445684e-14
                     5.8955419221635138e-18                      3                                       253.69186394764748              -3.4118368264713741e-11            -1.2910930473064809e-24            9.0377794231300362e-20             2.1470915582744046                     2.1470915582744046                       2.1470915582744046             5.3857212157754622e-19   5.2665920063546677e-18      2                             2                           0                     0.96671547125408885  0.12574827717105105  2.4453937012531911e-05        4.6087641459832743e-14              8.5506434016278433e-14
                     5.8955406306538042e-18                      4                                       253.71901882734011              -3.4126381072278203e-11            -1.2915097099428296e-24            9.0379407614448488e-20             2.1471096157530427                     2.1471096157530427                       2.1471096157530427             5.3857188145501799e-19   5.2665893415843371e-18      3                             3                           0                     0.96671507927992129  0.12574766605159407  3.7632996836138565e-05        4.6093419037949011e-14              1.3159985305422744e-13
                     5.8955393386495635e-18                      5                                       253.76316116138986              -3.4137861253190936e-11            -1.2920042402249237e-24            9.038136128748473e-20             2.1471314982744527                     2.1471314982744527                       2.1471314982744527             5.3857188385505421e-19   5.266586093507025e-18      4                             4                           0                     0.96671460281941368  0.12574691374988972  5.0810342283244035e-05        4.6095453501961602e-14              1.7769530655618906e-13
# Table End
