# ODT 1.0
# Table Start
# Title: mmArchive Data Table, Tue Jun 08 18:15:23 EDT 2021
# Columns: {Oxs_RungeKuttaEvolve:evolver:Total energy} {Oxs_RungeKuttaEvolve:evolver:Energy calc count} {Oxs_RungeKuttaEvolve:evolver:Max dm/dt} Oxs_RungeKuttaEvolve:evolver:dE/dt {Oxs_RungeKuttaEvolve:evolver:Delta E} Oxs_UniformExchange::Energy {Oxs_UniformExchange::Max Spin Ang} {Oxs_UniformExchange::Stage Max Spin Ang} {Oxs_UniformExchange::Run Max Spin Ang} Oxs_Demag::Energy    Oxs_FixedZeeman::Energy Oxs_TimeDriver::Iteration {Oxs_TimeDriver::Stage iteration} Oxs_TimeDriver::Stage Oxs_TimeDriver::mx   Oxs_TimeDriver::my   Oxs_TimeDriver::mz   {Oxs_TimeDriver::Last time step} {Oxs_TimeDriver::Simulation time}
# Units:                        J                                             {}                                         deg/ns                                 J/s                                   J                                 J                              deg                                    deg                                      deg                           J                       J                       {}                            {}                          {}                   {}                   {}                   {}                          s                                 s
                       4.1150227428891047e-18                            1                                            226.71299593264771                   -4.0030573433772819e-11                  0                                9.0375682026290676e-20             2.147067958362912                      2.147067958362912                        2.147067958362912              5.3857323022933248e-19   3.4860738306334817e-18      0                             0                           0                     0.96671597969141987  0.12574904562458797 -5.9031259592751805e-15        0                                0
                       4.1150210654583411e-18                            7                                            226.7152439923847                    -4.0032185749992923e-11                 -1.6774307635964763e-24              9.0376257642226683e-20             2.147073804621261                      2.147073804621261                        2.147073804621261              5.38572936661325e-19   3.4860718711547899e-18      1                             1                           0                     0.96671564907345464  0.12575019213373378 -5.3429271808656996e-05        4.190319995075305e-14              4.190319995075305e-14
                       4.1150143528755845e-18                            13                                           226.87322840352059                   -4.0073377034047427e-11                 -6.7125827565254215e-24              9.037996020029055e-20             2.1471115843516793                     2.1471115843516793                       2.1471115843516793             5.3857599960192004e-19   3.4860583930733738e-18      2                             2                           0                     0.96671337350843545  0.1257580700352757  -0.0002670737641986108        1.676127998030122e-13              2.0951599975376525e-13
                       4.1149942236586249e-18                            19                                           228.60824684543553                   -4.0525553247915173e-11                 -2.012921695987202e-23              9.0404360015601536e-20             2.1473610091025521                     2.1473610091025521                       2.1473610091025521             5.3862525118289738e-19   3.4859646124601256e-18      3                             3                           0                     0.96669753145396864  0.12581283504654039 -0.00090369267692809625        4.9999999999999999e-13              7.0951599975376524e-13
                       4.1149737455539709e-18                            25                                           231.65680298485719                   -4.1468336819204002e-11                 -2.047810465387263e-23              9.0448980127009467e-20             2.1478145643872848                     2.1478145643872848                       2.1478145643872848             5.3873409877415499e-19   3.4857906666528069e-18      4                             4                           0                     0.96666813843531285  0.12591436305968592 -0.0015392513360533181        4.9999999999999999e-13              1.2095159997537651e-12
# Table End
