# ODT 1.0
# Table Start
# Title: mmArchive Data Table, Tue Jun 08 18:15:22 EDT 2021
# Columns: {Oxs_EulerEvolve:evolver:Total energy} {Oxs_EulerEvolve:evolver:Energy calc count} {Oxs_EulerEvolve:evolver:Max dm/dt} Oxs_EulerEvolve:evolver:dE/dt {Oxs_EulerEvolve:evolver:Delta E} Oxs_UniformExchange::Energy {Oxs_UniformExchange::Max Spin Ang} {Oxs_UniformExchange::Stage Max Spin Ang} {Oxs_UniformExchange::Run Max Spin Ang} Oxs_Demag::Energy    Oxs_FixedZeeman::Energy Oxs_TimeDriver::Iteration {Oxs_TimeDriver::Stage iteration} Oxs_TimeDriver::Stage Oxs_TimeDriver::mx   Oxs_TimeDriver::my   Oxs_TimeDriver::mz   {Oxs_TimeDriver::Last time step} {Oxs_TimeDriver::Simulation time}
# Units:                     J                                        {}                                    deg/ns                             J/s                              J                              J                              deg                                    deg                                      deg                           J                       J                       {}                            {}                          {}                   {}                   {}                   {}                          s                                 s
                     4.1150227428891047e-18                      1                                       226.71299593264771              -4.0030573433772819e-11             0                              9.0375682026290676e-20             2.147067958362912                      2.147067958362912                        2.147067958362912              5.3857323022933248e-19   3.4860738306334817e-18      0                             0                           0                     0.96671597969141987  0.12574904562458797 -5.9031259592751805e-15        0                                0
                     4.1150212831635816e-18                      2                                       226.71048155324345              -4.0032383681831384e-11            -1.4597255238478512e-24            9.0376214906552005e-20             2.1470733480865922                     2.1470733480865922                       2.1470733480865922             5.3857300990823959e-19   3.4860720583487895e-18      1                             1                           0                     0.96671567989012197  0.12575007821048154 -5.6245148554317422e-05        4.4108631527108477e-14              4.4108631527108477e-14
                     4.1150196950661433e-18                      3                                       226.72669140614082              -4.0038942515870505e-11            -1.588097437877309e-24            9.0376981805908107e-20             2.1470811329446868                     2.1470811329446868                       2.1470811329446868             5.3857332783664738e-19   3.4860693854235878e-18      2                             2                           0                     0.96671522775337138  0.12575163563775596 -0.0001189257479463936        4.9162455816019671e-14              9.3271087343128142e-14
                     4.1150181063501379e-18                      4                                       226.76364337688108              -4.0050286114704583e-11            -1.5887160052166792e-24            9.0377941522629619e-20             2.147090900960821                      2.147090900960821                        2.147090900960821              5.3857422929934173e-19   3.4860659355281669e-18      3                             3                           0                     0.9667146443221275   0.12575364654338653 -0.00018160561274745992        4.9169706812543352e-14              1.4244079415567151e-13
                     4.1150165167846055e-18                      5                                       226.82123392130381              -4.0066414062985372e-11            -1.5895655322063022e-24            9.0379094154862363e-20             2.1471026525121069                     2.1471026525121069                       2.1471026525121069             5.3857571417884045e-19   3.4860617084509027e-18      4                             4                           0                     0.96671392955949131  0.1257561110443729  -0.00024428448803544555        4.9176776749493494e-14              1.9161757090516499e-13
# Table End
