# ODT 1.0
# Table Start
# Title: mmArchive Data Table, Tue Jun 09 18:26:30 EDT 2015
# Columns: {Oxs_RungeKuttaEvolve:evolver:Total energy} {Oxs_RungeKuttaEvolve:evolver:Energy calc count} {Oxs_RungeKuttaEvolve:evolver:Max dm/dt} Oxs_RungeKuttaEvolve:evolver:dE/dt {Oxs_RungeKuttaEvolve:evolver:Delta E} Oxs_UniformExchange::Energy {Oxs_UniformExchange::Max Spin Ang} {Oxs_UniformExchange::Stage Max Spin Ang} {Oxs_UniformExchange::Run Max Spin Ang} Oxs_Demag::Energy    Oxs_FixedZeeman::Energy Oxs_TimeDriver::Iteration {Oxs_TimeDriver::Stage iteration} Oxs_TimeDriver::Stage Oxs_TimeDriver::mx   Oxs_TimeDriver::my   Oxs_TimeDriver::mz   {Oxs_TimeDriver::Last time step} {Oxs_TimeDriver::Simulation time}
# Units:                        J                                             {}                                         deg/ns                                 J/s                                   J                                 J                              deg                                    deg                                      deg                           J                       J                       {}                            {}                          {}                   {}                   {}                   {}                          s                                 s                
                       4.115022742898014e-18                            1                                            226.71299705095393                   -4.0030573433653427e-11                  0                                9.0375682025340458e-20             2.147067958637582                      2.147067958637582                        2.147067958637582              5.3857323023023776e-19   3.4860738306424358e-18      0                             0                           0                     0.96671597969290479  0.12574904561919942  3.2176626416028486e-16        0                                0                         
                       4.1150210654672582e-18                            7                                            226.71524508438074                   -4.0032185749856943e-11                 -1.6774307553191053e-24              9.037625764127354e-20             2.1470738048910847                     2.1470738048910847                       2.1470738048910847             5.3857293666223038e-19   3.4860718711637547e-18      1                             1                           0                     0.96671564907494112  0.12575019212833868 -5.3429271538857351e-05        4.1903199744057318e-14              4.1903199744057318e-14       
                       4.1150143528845424e-18                            13                                           226.87322682696382                   -4.0073377033296335e-11                 -6.7125827162063193e-24              9.0379960199699169e-20             2.1471115845327438                     2.1471115845327438                       2.1471115845327438             5.3857599960239623e-19   3.4860583930824472e-18      2                             2                           0                     0.96671337350994024  0.12575807002981906 -0.00026707376287504622        1.6761279897622927e-13              2.0951599872028658e-13       
                       4.1149872941522295e-18                            19                                           229.53619098749385                   -4.0792013592064211e-11                 -2.7058732313175801e-23              9.0417283579268418e-20             2.1474927969236917                     2.1474927969236917                       2.1474927969236917             5.3865569544407173e-19   3.4859143151288891e-18      3                             3                           0                     0.96668903314367971  0.12584219716478989 -0.0011204763592755958        6.7045119590491709e-13              8.7996719462520367e-13       
                       4.1149265368355446e-18                            31                                           241.35139186020785                   -4.52278883748086e-11                 -6.0757316684193733e-23              9.0618401946291131e-20             2.1495827694048435                     2.1495827694048435                       2.1495827694048435             5.3917739355777393e-19   3.4851307413314803e-18      4                             4                           0                     0.96655656751331842  0.1262992136320398  -0.0029262476241708893        1.4237094853514978e-12              2.3036766799767017e-12       
# Table End
