# ODT 1.0
# Table Start
# Title: mmArchive Data Table, Tue Jun 09 18:26:34 EDT 2015
# Columns: {Oxs_RungeKuttaEvolve:evolver:Total energy} {Oxs_RungeKuttaEvolve:evolver:Energy calc count} {Oxs_RungeKuttaEvolve:evolver:Max dm/dt} Oxs_RungeKuttaEvolve:evolver:dE/dt {Oxs_RungeKuttaEvolve:evolver:Delta E} Oxs_UniformExchange::Energy {Oxs_UniformExchange::Max Spin Ang} {Oxs_UniformExchange::Stage Max Spin Ang} {Oxs_UniformExchange::Run Max Spin Ang} Oxs_Demag::Energy    Oxs_FixedZeeman::Energy Oxs_TimeDriver::Iteration {Oxs_TimeDriver::Stage iteration} Oxs_TimeDriver::Stage Oxs_TimeDriver::mx   Oxs_TimeDriver::my   Oxs_TimeDriver::mz   {Oxs_TimeDriver::Last time step} {Oxs_TimeDriver::Simulation time}
# Units:                        J                                             {}                                         deg/ns                                 J/s                                   J                                 J                              deg                                    deg                                      deg                           J                       J                       {}                            {}                          {}                   {}                   {}                   {}                          s                                 s                
                       5.8955443522304402e-18                            1                                            253.6861074499482                    -3.4112693421633348e-11                  0                                9.0375682025340458e-20             2.147067958637582                      2.147067958637582                        2.147067958637582              5.3857323023023776e-19   5.2665954399748619e-18      0                             0                           0                     0.96671597969290479  0.12574904561919942  3.2176626416028486e-16        0                                0                         
                       5.8955430747718286e-18                            7                                            253.68474133536381                   -3.411368889165416e-11                 -1.2774586119358896e-24              9.0376587727969336e-20             2.1470780885139407                     2.1470780885139407                       2.1470780885139407             5.3857251701532019e-19   5.2665939700285388e-18      1                             1                           0                     0.96671576214549548  0.12574871598283027  1.0709789154073003e-05        3.7447852763771591e-14              3.7447852763771591e-14       
                       5.8955379632785417e-18                            13                                           253.7909660684831                    -3.4140562321099138e-11                 -5.1114932868903761e-24              9.038245614635407e-20             2.1471438502935247                     2.1471438502935247                       2.1471438502935247             5.3857126614844345e-19   5.2665842409837441e-18      2                             2                           0                     0.96671433443156418  0.12574646575202555  5.353381153829415e-05        1.4979141105508636e-13              1.8723926381885795e-13       
                       5.8955173949529552e-18                            19                                           255.81260004652557                   -3.4613192000586851e-11                 -2.0568325586188736e-23              9.0441834230605413e-20             2.1478103936537005                     2.1478103936537005                       2.1478103936537005             5.385917811894552e-19   5.2664837795328949e-18      3                             3                           0                     0.96669970886525258  0.12572257124383474  0.00022457746559314995        5.9916564422034545e-13              7.8640490803920334e-13       
                       5.8954717291079814e-18                            31                                           265.30219991477099                   -3.7542090080290304e-11                 -4.5665844974049237e-23              9.0758677277356532e-20             2.1513782505572552                     2.1513782505572552                       2.1513782505572552             5.38769582625446e-19   5.2659434692051785e-18      4                             4                           0                     0.9666212738307941   0.1255927894774598   0.00058667392686297137        1.273612643049876e-12              2.0600175510890795e-12       
# Table End
