# ODT 1.0
# Table Start
# Title: mmArchive Data Table, Tue Jun 09 18:26:33 EDT 2015
# Columns: {Oxs_RungeKuttaEvolve:evolver:Total energy} {Oxs_RungeKuttaEvolve:evolver:Energy calc count} {Oxs_RungeKuttaEvolve:evolver:Max dm/dt} Oxs_RungeKuttaEvolve:evolver:dE/dt {Oxs_RungeKuttaEvolve:evolver:Delta E} Oxs_UniformExchange::Energy {Oxs_UniformExchange::Max Spin Ang} {Oxs_UniformExchange::Stage Max Spin Ang} {Oxs_UniformExchange::Run Max Spin Ang} Oxs_Demag::Energy    Oxs_FixedZeeman::Energy Oxs_TimeDriver::Iteration {Oxs_TimeDriver::Stage iteration} Oxs_TimeDriver::Stage Oxs_TimeDriver::mx   Oxs_TimeDriver::my   Oxs_TimeDriver::mz   {Oxs_TimeDriver::Last time step} {Oxs_TimeDriver::Simulation time}
# Units:                        J                                             {}                                         deg/ns                                 J/s                                   J                                 J                              deg                                    deg                                      deg                           J                       J                       {}                            {}                          {}                   {}                   {}                   {}                          s                                 s                
                       5.8955443522304402e-18                            1                                            253.6861074499482                    -3.4112693421633348e-11                  0                                9.0375682025340458e-20             2.147067958637582                      2.147067958637582                        2.147067958637582              5.3857323023023776e-19   5.2665954399748619e-18      0                             0                           0                     0.96671597969290479  0.12574904561919942  3.2176626416028486e-16        0                                0                         
                       5.8955430747718286e-18                            12                                           253.68474133507334                   -3.4113688891654089e-11                 -1.2774586119352392e-24              9.0376587727969336e-20             2.1470780885139407                     2.1470780885139407                       2.1470780885139407             5.3857251701532019e-19   5.2665939700285388e-18      1                             1                           0                     0.96671576214549548  0.12574871598283027  1.0709789154073108e-05        3.7447852763771591e-14              3.7447852763771591e-14       
                       5.8955379632785425e-18                            23                                           253.7909650337786                    -3.4140562320737841e-11                 -5.1114932862727927e-24              9.0382456146388075e-20             2.1471438502939773                     2.1471438502939773                       2.1471438502939773             5.3857126614840667e-19   5.2665842409837472e-18      2                             2                           0                     0.96671433443156496  0.125746465752025    5.3533811538391444e-05        1.4979141105508636e-13              1.8723926381885795e-13       
                       5.8955173949472498e-18                            34                                           255.80840759968183                   -3.4613189723259266e-11                 -2.0568331292251417e-23              9.0441834417113095e-20             2.1478103970538522                     2.1478103970538522                       2.1478103970538522             5.3859178098417196e-19   5.266483779545965e-18      3                             3                           0                     0.96669970886808176  0.12572257124172329  0.00022457746557117669        5.9916564422034545e-13              7.8640490803920334e-13       
                       5.8954804027143708e-18                            45                                           263.12545329858699                   -3.680962562145186e-11                 -3.6992232879216356e-23              9.0681201444897084e-20             2.1504993821159526                     2.1504993821159526                       2.1504993821159526             5.3872339621330629e-19   5.2660758050561671e-18      4                             4                           0                     0.96664047740069459  0.12562461682271758  0.00052044131881956673        1.0400800352099054e-12              1.826484943249109e-12       
# Table End
