# ODT 1.0
# Table Start
# Title: mmArchive Data Table, Tue Jun 08 18:15:26 EDT 2021
# Columns: {Oxs_RungeKuttaEvolve:evolver:Total energy} {Oxs_RungeKuttaEvolve:evolver:Energy calc count} {Oxs_RungeKuttaEvolve:evolver:Max dm/dt} Oxs_RungeKuttaEvolve:evolver:dE/dt {Oxs_RungeKuttaEvolve:evolver:Delta E} Oxs_UniformExchange::Energy {Oxs_UniformExchange::Max Spin Ang} {Oxs_UniformExchange::Stage Max Spin Ang} {Oxs_UniformExchange::Run Max Spin Ang} Oxs_Demag::Energy    Oxs_FixedZeeman::Energy Oxs_TimeDriver::Iteration {Oxs_TimeDriver::Stage iteration} Oxs_TimeDriver::Stage Oxs_TimeDriver::mx   Oxs_TimeDriver::my   Oxs_TimeDriver::mz   {Oxs_TimeDriver::Last time step} {Oxs_TimeDriver::Simulation time}
# Units:                        J                                             {}                                         deg/ns                                 J/s                                   J                                 J                              deg                                    deg                                      deg                           J                       J                       {}                            {}                          {}                   {}                   {}                   {}                          s                                 s
                       5.8955443522276723e-18                            1                                            253.68610633317888                   -3.4112693422093202e-11                  0                                9.0375682026290676e-20             2.147067958362912                      2.147067958362912                        2.147067958362912              5.3857323022933248e-19   5.2665954399720485e-18      0                             0                           0                     0.96671597969141987  0.12574904562458797 -5.9031259592751805e-15        0                                0
                       5.8955430747690545e-18                            7                                            253.68474023955349                   -3.4113688892123288e-11                 -1.2774586174899924e-24              9.0376587728923971e-20             2.1470780882432541                     2.1470780882432541                       2.1470780882432541             5.385725170144123e-19   5.2665939700257184e-18      1                             1                           0                     0.96671576214400967  0.1257487159882173   1.0709789194462854e-05        3.7447852928623401e-14              3.7447852928623401e-14
                       5.8955379632757445e-18                            13                                           253.79096536037716                   -3.4140562321806829e-11                 -5.1114933095014067e-24              9.0382456147345852e-20             2.1471438500967874                     2.1471438500967874                       2.1471438500967874             5.3857126614753904e-19   5.2665842409808598e-18      2                             2                           0                     0.96671433443006927  0.12574646575739787  5.3533811765009891e-05        1.497914117144936e-13              1.87239264643117e-13
                       5.8955208213819959e-18                            19                                           255.32586834007625                   -3.4494736774594733e-11                 -1.7141893748971984e-23              9.0428041072290593e-20             2.1476555326814224                     2.1476555326814224                       2.1476555326814224             5.3858557701606428e-19   5.2665072032936408e-18      3                             3                           0                     0.96670311404827935  0.12572817035613978  0.00019629750605508535        4.9999999999999999e-13              6.8723926464311701e-13
                       5.89550340104883e-18                            25                                           258.20607108176443                   -3.525384876706528e-11                 -1.7420333165415948e-23              9.0513612698273894e-20             2.1486159190710032                     2.1486159190710032                       2.1486159190710032             5.3862814604015564e-19   5.2663616423104005e-18      4                             4                           0                     0.96668196698913988  0.12569329956955516  0.00033876466154111727        4.9999999999999999e-13              1.187239264643117e-12
# Table End
