# ODT 1.0
# Table Start
# Title: mmArchive Data Table, Wed Aug 17 23:55:49 EDT 2011
# Columns: {Oxs_CGEvolve:evolve:Max mxHxm} {Oxs_CGEvolve:evolve:Total energy} {Oxs_CGEvolve:evolve:Delta E} {Oxs_CGEvolve:evolve:Bracket count} {Oxs_CGEvolve:evolve:Line min count} {Oxs_CGEvolve:evolve:Conjugate cycle count} {Oxs_CGEvolve:evolve:Cycle count} {Oxs_CGEvolve:evolve:Cycle sub count} {Oxs_CGEvolve:evolve:Energy calc count} Oxs_UniformExchange::Energy {Oxs_UniformExchange::Max Spin Ang} {Oxs_UniformExchange::Stage Max Spin Ang} {Oxs_UniformExchange::Run Max Spin Ang} Oxs_UniaxialAnisotropy::Energy Oxs_Demag::Energy    Oxs_UZeeman::Energy  Oxs_UZeeman::B       Oxs_UZeeman::Bx      Oxs_UZeeman::By      Oxs_UZeeman::Bz      Oxs_MinDriver::Iteration {Oxs_MinDriver::Stage iteration} Oxs_MinDriver::Stage Oxs_MinDriver::mx    Oxs_MinDriver::my    Oxs_MinDriver::mz   
# Units:                 A/m                               J                                J                               {}                                   {}                                      {}                                     {}                                  {}                                     {}                                 J                              deg                                    deg                                      deg                                 J                        J                     J                 mT                   mT                   mT                   mT                        {}                           {}                         {}                 {}                   {}                   {}           
                 167841.51342528473               -1.4233225277115336e-15            -1.4233225277115336e-15              0                                    0                                       1                                      1                                   1                                      1                                 0                               0                                      0                                        0                                   1.9801980198019805e-19       2.9093079112686358e-16 -1.7144513386403776e-15  50.007616402258023   50                   0.87275325000000004  0                      0                            0                          0                    0.99503719021081816  0.099503719020998763  0                  
                 167370.18200669379               -1.4233721802437603e-15            -4.9652532226678102e-20              1                                    0                                       1                                      1                                   1                                      2                                 5.1020716307476803e-23             0.067038319090375262                    0.067038319090375262                      0.067038319090375262                 1.9792235749580013e-19       2.9088466007811474e-16 -1.714454813700087e-15  50.007616402258023   50                   0.87275325000000004  0                      1                            1                          0                    0.9950396384624296   0.0994792064290555   1.6524249668839539e-23
                 164072.92023456638               -1.4237143209443987e-15            -3.4214070063838051e-19              2                                    0                                       1                                      1                                   1                                      3                                 3.2652606761358277e-21             0.53630243327582927                    0.53630243327582927                      0.53630243327582927                 1.9724685865739488e-19       2.9056401882460691e-16 -1.7144788518883392e-15  50.007616402258023   50                   0.87275325000000004  0                      2                            2                          0                    0.99505660952772201  0.099307601541549231 -1.0443325790706588e-21
                 164134.18110631936               -1.389424743906632e-15             3.4289577037766645e-17              2                                    0                                       2                                      2                                   2                                      4                                 3.2652606761358277e-21             0.53630243327582927                    0.53630243327582927                      0.53630243327582927                 1.9724685865739488e-19       2.9056401882460691e-16 -1.6801892748505725e-15  49.007464074212862   49                   0.85529818499999999  0                      3                            0                          1                    0.99505660952772201  0.099307601541549231 -1.0443325790706588e-21
                 163671.2587926733                -1.3894722818281493e-15            -4.7537921517293842e-20              3                                    0                                       2                                      2                                   0                                      5                                 4.1137996912356953e-21             0.60198378575077682                    0.60198378575077682                      0.60198378575077682                 1.97150960204226e-19       2.9051906556189932e-16 -1.6801926121499439e-15  49.007464074212862   49                   0.85529818499999999  0                      4                            1                          1                    0.99505901877253111  0.099283003712865928  1.4673533705929511e-21
                 160433.09225438739               -1.3897998367067405e-15            -3.2755487859114518e-19              4                                    0                                       2                                      2                                   0                                      6                                 1.2794663873352865e-20             1.0617496048981212                     1.0617496048981212                       1.0617496048981212                  1.964861426354236e-19       2.9020658016177369e-16 -1.6802156976750229e-15  49.007464074212862   49                   0.85529818499999999  0                      5                            2                          1                    0.99507572028817648  0.09911080245704533 -1.4699972505399655e-20
                 160500.23205771469               -1.3555097204276583e-15             3.4290116279082136e-17              4                                    0                                       3                                      3                                   1                                      7                                 1.2794663873352865e-20             1.0617496048981212                     1.0617496048981212                       1.0617496048981212                  1.964861426354236e-19       2.9020658016177369e-16 -1.645925581395941e-15  48.007311746167701   48                   0.83784312000000005  0                      6                            0                          2                    0.99507572028817648  0.09911080245704533 -1.4699972505399655e-20
                 160045.94656786748               -1.3555552260686469e-15            -4.5505640988624369e-20              5                                    0                                       3                                      3                                   0                                      8                                 1.4390563476786965e-20             1.1260447590091633                     1.1260447590091633                       1.1260447590091633                  1.9639175595741742e-19       2.9016277692835861e-16 -1.6459287853164394e-15  48.007311746167701   48                   0.83784312000000005  0                      7                            1                          2                    0.9950780913732733   0.099086126166143804  7.8258846431624057e-21
                 156868.44878333926               -1.3558687709673631e-15            -3.1354489871612875e-19              6                                    0                                       3                                      3                                   0                                      9                                 2.818713505061601e-20             1.5761074968784516                     1.5761074968784516                       1.5761074968784516                  1.9573738168917821e-19       2.8985825303636153e-16 -1.6459509485204642e-15  48.007311746167701   48                   0.83784312000000005  0                      8                            2                          2                    0.99509452922235331  0.098913375962479635 -6.4510670707149559e-21
                 156941.46452214464               -1.32157812620652e-15             3.4290644760843104e-17              6                                    0                                       4                                      4                                   1                                      10                                2.818713505061601e-20             1.5761074968784516                     1.5761074968784516                       1.5761074968784516                  1.9573738168917821e-19       2.8985825303636153e-16 -1.6116603037596213e-15  47.007159418122541   47                   0.82038805500000012  0                      9                            0                          3                    0.99509452922235331  0.098913375962479635 -6.4510670707149559e-21
                 156496.03257298056               -1.3216216822859393e-15            -4.355607941932834e-20              7                                    0                                       4                                      4                                   0                                      11                                3.0480050042755439e-20             1.6389878800656252                     1.6389878800656252                       1.6389878800656252                  1.9564447630850278e-19       2.8981557163793138e-16 -1.6116633784502218e-15  47.007159418122541   47                   0.82038805500000012  0                      10                           1                          3                    0.9950968628989213   0.098888628823764313 -2.2737367544323206e-21
                 153380.69780274946               -1.321921795419974e-15            -3.0011313403472957e-19              8                                    0                                       4                                      4                                   0                                      12                                4.9040324042356938e-20             2.079146515637524                      2.079146515637524                        2.079146515637524                   1.9500033419783961e-19       2.8951881196128396e-16 -1.6116846480394982e-15  47.007159418122541   47                   0.82038805500000012  0                      11                           2                          3                    0.99511304227852315  0.098715382971091128 -3.437043931118624e-21
                 153459.58479512489               -1.2876306326957295e-15             3.4291162724244558e-17              8                                    0                                       5                                      5                                   1                                      13                                4.9040324042356938e-20             2.079146515637524                      2.079146515637524                        2.079146515637524                   1.9500033419783961e-19       2.8951881196128396e-16 -1.5773934853152536e-15  46.00700709007738    46                   0.80293299000000018  0                      12                           0                          4                    0.99511304227852315  0.098715382971091128 -3.437043931118624e-21
                 153023.21032570669               -1.2876723222118317e-15            -4.1689516102256589e-20              9                                    0                                       5                                      5                                   0                                      14                                5.1979844430117904e-20             2.1405839843610353                     2.1405839843610353                       2.1405839843610353                  1.9490888377548811e-19       2.8947722375105562e-16 -1.5773964346910931e-15  46.00700709007738    46                   0.80293299000000018  0                      13                           1                          4                    0.99511533919215667  0.098690573482216326 -1.7290974853473693e-20
                 150055.12587724559               -1.287959583385549e-15            -2.8726117371729919e-19              10                                   0                                       5                                      5                                   0                                      15                                7.4951597680814688e-20             2.5706424290281009                     2.5706424290281009                       2.5706424290281009                  1.9427479204300677e-19       2.891880279519379e-16 -1.5774168377272106e-15  46.00700709007738    46                   0.80293299000000018  0                      14                           2                          4                    0.9951312645517133   0.098516891461207803  2.6438799470143262e-20
                 150056.19286639706               -1.2536679130001748e-15             3.4291670385374237e-17              10                                   0                                       6                                      6                                   1                                      16                                7.4951597680814688e-20             2.5706424290281009                     2.5706424290281009                       2.5706424290281009                  1.9427479204300677e-19       2.891880279519379e-16 -1.5431251673418365e-15  45.006854762032219   45                   0.78547792500000002  0                      15                           0                          5                    0.9951312645517133   0.098516891461207803  2.6438799470143262e-20
                 149645.9340692586                -1.2537078191102935e-15            -3.9906110118704833e-20              11                                   0                                       6                                      6                                   0                                      17                                7.8487382952745427e-20             2.6306098832502514                     2.6306098832502514                       2.6306098832502514                  1.9418477474257634e-19       2.8914750381601452e-16 -1.5431279950840033e-15  45.006854762032219   45                   0.78547792500000002  0                      16                           1                          5                    0.99513352523364984  0.098492029043610235 -2.1521182768696615e-20
                 147007.15293352946               -1.2539828088600869e-15            -2.7498974979342829e-19              12                                   0                                       6                                      6                                   0                                      18                                1.0551912400814499e-19             3.0503784836495611                     3.0503784836495611                       3.0503784836495611                  1.9356058353055075e-19       2.8886566841539221e-16 -1.5431475569830179e-15  45.006854762032219   45                   0.78547792500000002  0                      17                           2                          5                    0.99514920021253606  0.098317976800446003 -8.5661710283264177e-21
                 146980.20360938407               -1.2196906409271311e-15             3.4292167932955871e-17              12                                   0                                       7                                      7                                   1                                      19                                1.0551912400814499e-19             3.0503784836495611                     3.0503784836495611                       3.0503784836495611                  1.9356058353055075e-19       2.8886566841539221e-16 -1.5088553890500619e-15  44.006702433987058   44                   0.76802285999999997  0                      18                           0                          6                    0.99514920021253606  0.098317976800446003 -8.5661710283264177e-21
                 146610.07140827115               -1.2197287826229184e-15            -3.8141695787305227e-20              13                                   0                                       7                                      7                                   0                                      20                                1.0959411187312146e-19             3.1087515282928395                     3.1087515282928395                       3.1087515282928395                  1.9347213136394385e-19       2.8882624518575435e-16 -1.5088580940519097e-15  44.006702433987058   44                   0.76802285999999997  0                      19                           1                          6                    0.99515142132969825  0.098293113763200851 -7.1913534558789672e-21
                 144018.88659151355               -1.2199916458690193e-15            -2.6286324610090263e-19              14                                   0                                       7                                      7                                   0                                      21                                1.4028025664973093e-19             3.5173595681867678                     3.5173595681867678                       3.5173595681867678                  1.9285874865017284e-19       2.8855202258297595e-16 -1.5088768074572952e-15  44.006702433987058   44                   0.76802285999999997  0                      20                           2                          6                    0.99516682300075854  0.098119057507185165  1.3007889339310485e-20
# Table End
