# ODT 1.0
# Table Start
# Title: mmArchive Data Table, Tue Jun 08 18:15:25 EDT 2021
# Columns: {Oxs_RungeKuttaEvolve:evolver:Total energy} {Oxs_RungeKuttaEvolve:evolver:Energy calc count} {Oxs_RungeKuttaEvolve:evolver:Max dm/dt} Oxs_RungeKuttaEvolve:evolver:dE/dt {Oxs_RungeKuttaEvolve:evolver:Delta E} Oxs_UniformExchange::Energy {Oxs_UniformExchange::Max Spin Ang} {Oxs_UniformExchange::Stage Max Spin Ang} {Oxs_UniformExchange::Run Max Spin Ang} Oxs_Demag::Energy    Oxs_FixedZeeman::Energy Oxs_TimeDriver::Iteration {Oxs_TimeDriver::Stage iteration} Oxs_TimeDriver::Stage Oxs_TimeDriver::mx   Oxs_TimeDriver::my   Oxs_TimeDriver::mz   {Oxs_TimeDriver::Last time step} {Oxs_TimeDriver::Simulation time}
# Units:                        J                                             {}                                         deg/ns                                 J/s                                   J                                 J                              deg                                    deg                                      deg                           J                       J                       {}                            {}                          {}                   {}                   {}                   {}                          s                                 s
                       5.8955443522276723e-18                            1                                            253.68610633317888                   -3.4112693422093202e-11                  0                                9.0375682026290676e-20             2.147067958362912                      2.147067958362912                        2.147067958362912              5.3857323022933248e-19   5.2665954399720485e-18      0                             0                           0                     0.96671597969141987  0.12574904562458797 -5.9031259592751805e-15        0                                0
                       5.8955430747616289e-18                            3                                            253.68474295656793                   -3.4113688894064293e-11                 -1.2774660429547112e-24              9.0376587735506029e-20             2.1470780883051224                     2.1470780883051224                       2.1470780883051224             5.3857251700790285e-19   5.2665939700182204e-18      1                             1                           0                     0.96671576214296862  0.12574871598614934  1.0709790826321028e-05        3.7447852928623401e-14              3.7447852928623401e-14
                       5.8955379628035534e-18                            5                                            253.79172027550882                   -3.4140563242979025e-11                 -5.1119580750826578e-24              9.0382456552384796e-20             2.1471438538036387                     2.1471438538036387                       2.1471438538036387             5.3857126576603677e-19   5.2665842404851324e-18      2                             2                           0                     0.96671433436093568  0.12574646562238076  5.3533917790469102e-05        1.497914117144936e-13              1.87239264643117e-13
                       5.895520804822935e-18                            7                                            255.42020643616814                   -3.4494863065010404e-11                 -1.7157980618941475e-23              9.0428053920426003e-20             2.1476556481984779                     2.1476556481984779                       2.1476556481984779             5.385855673456717e-19   5.2665071835568371e-18      3                             3                           0                     0.96670311125943298  0.12572816518556332  0.00019630148925081764        4.9999999999999999e-13              6.8723926464311701e-13
                       5.8955033685271548e-18                            9                                            258.4747961727702                    -3.5254189322559386e-11                 -1.7436295780242746e-23              9.0513642509781926e-20             2.1486165712939895                     2.1486165712939895                       2.1486165712939895             5.386281262352935e-19   5.2663615997820786e-18      4                             4                           0                     0.96668196089987879  0.12569328887854514  0.00033877250200048452        4.9999999999999999e-13              1.187239264643117e-12
# Table End
