# ODT 1.0
# Table Start
# Title: mmArchive Data Table, Wed Aug 17 23:55:50 EDT 2011
# Columns: {Oxs_CGEvolve::Max mxHxm} {Oxs_CGEvolve::Total energy} {Oxs_CGEvolve::Delta E} {Oxs_CGEvolve::Bracket count} {Oxs_CGEvolve::Line min count} {Oxs_CGEvolve::Conjugate cycle count} {Oxs_CGEvolve::Cycle count} {Oxs_CGEvolve::Cycle sub count} {Oxs_CGEvolve::Energy calc count} Oxs_UniaxialAnisotropy::Energy Oxs_UniformExchange::Energy {Oxs_UniformExchange::Max Spin Ang} {Oxs_UniformExchange::Stage Max Spin Ang} {Oxs_UniformExchange::Run Max Spin Ang} Oxs_Demag::Energy    Oxs_MinDriver::Iteration {Oxs_MinDriver::Stage iteration} Oxs_MinDriver::Stage Oxs_MinDriver::mx    Oxs_MinDriver::my    Oxs_MinDriver::mz   
# Units:              A/m                         J                          J                         {}                             {}                                {}                               {}                            {}                               {}                               J                             J                              deg                                    deg                                      deg                           J                       {}                           {}                         {}                 {}                   {}                   {}           
              94305859.970723078          8.3395014656393872e-14       8.3395014656393872e-14        0                              0                                 1                                1                             1                                1                                6.6812759070755495e-17          8.299498278660809e-14             179.6500482634826                      179.6500482634826                        179.6500482634826              3.3321911071502627e-16    0                            0                          0                   -0.0010821396544801215  0.0011025038669734265 -0.0032518676227465439
              94297330.81737797           8.3376583352445354e-14      -1.8431303948518176e-17        1                              0                                 1                                1                             1                                2                                6.6812607449001862e-17          8.2976552473384025e-14             179.65364233638365                     179.65364233638365                       179.65364233638365             3.3321827161232976e-16    1                            1                          0                   -0.0010827628168754617  0.0011024787809042515 -0.0032553060972004793
              94270821.952012897          8.3321289334608852e-14      -5.5294017836501856e-17        2                              0                                 1                                1                             1                                3                                6.681215224304763e-17          8.2921261430765722e-14             179.66431815256371                     179.66431815256371                       179.66431815256371             3.3321575160006432e-16    2                            2                          0                   -0.0010846310605570415  0.00110240430754767 -0.0032656175185767906
# Table End
