# ODT 1.0
# Table Start
# Title: mmArchive Data Table, Tue Jun 09 18:26:29 EDT 2015
# Columns: {Oxs_RungeKuttaEvolve:evolver:Total energy} {Oxs_RungeKuttaEvolve:evolver:Energy calc count} {Oxs_RungeKuttaEvolve:evolver:Max dm/dt} Oxs_RungeKuttaEvolve:evolver:dE/dt {Oxs_RungeKuttaEvolve:evolver:Delta E} Oxs_UniformExchange::Energy {Oxs_UniformExchange::Max Spin Ang} {Oxs_UniformExchange::Stage Max Spin Ang} {Oxs_UniformExchange::Run Max Spin Ang} Oxs_Demag::Energy    Oxs_FixedZeeman::Energy Oxs_TimeDriver::Iteration {Oxs_TimeDriver::Stage iteration} Oxs_TimeDriver::Stage Oxs_TimeDriver::mx   Oxs_TimeDriver::my   Oxs_TimeDriver::mz   {Oxs_TimeDriver::Last time step} {Oxs_TimeDriver::Simulation time}
# Units:                        J                                             {}                                         deg/ns                                 J/s                                   J                                 J                              deg                                    deg                                      deg                           J                       J                       {}                            {}                          {}                   {}                   {}                   {}                          s                                 s                
                       4.115022742898014e-18                            1                                            226.71299705095393                   -4.0030573433653427e-11                  0                                9.0375682025340458e-20             2.147067958637582                      2.147067958637582                        2.147067958637582              5.3857323023023776e-19   3.4860738306424358e-18      0                             0                           0                     0.96671597969290479  0.12574904561919942  3.2176626416028486e-16        0                                0                         
                       4.1150210654672582e-18                            12                                           226.7152450842386                    -4.0032185749856788e-11                 -1.6774307553195193e-24              9.0376257641273576e-20             2.1470738048910842                     2.1470738048910842                       2.1470738048910842             5.3857293666223028e-19   3.4860718711637547e-18      1                             1                           0                     0.96671564907494112  0.12575019212833868 -5.342927153886059e-05        4.1903199744057318e-14              4.1903199744057318e-14       
                       4.1150143528845362e-18                            23                                           226.87322658969862                   -4.0073377032545532e-11                 -6.7125827220730809e-24              9.0379960199758476e-20             2.1471115845322086                     2.1471115845322086                       2.1471115845322086             5.3857599960232988e-19   3.486058393082448e-18      2                             2                           0                     0.96671337350994058  0.12575807002981865 -0.0002670737628784562        1.6761279897622927e-13              2.0951599872028658e-13       
                       4.1149872941310327e-18                            34                                           229.53381816217239                   -4.0792010303473521e-11                 -2.7058753503398825e-23              9.0417284046876084e-20             2.1474927834875004                     2.1474927834875004                       2.1474927834875004             5.3865569494692537e-19   3.4859143151372315e-18      3                             3                           0                     0.96668903314535615  0.1258421971614469  -0.0011204763639367857        6.7045119590491709e-13              8.7996719462520367e-13       
                       4.114943704470836e-18                            45                                           237.24539988530975                   -4.3633170052126554e-11                 -4.3589660196919006e-23              9.0547198523712335e-20             2.1488148608313495                     2.1488148608313495                       2.1488148608313495             5.3898868066020349e-19   3.4854078252869208e-18      4                             4                           0                     0.96660342338561367  0.12613768528061206 -0.0024365182499072277        1.0368966143442073e-12              1.9168638089694111e-12       
# Table End
