# ODT 1.0
# Table Start
# Title: mmArchive Data Table, Tue Jun 08 18:15:25 EDT 2021
# Columns: {Oxs_RungeKuttaEvolve:evolver:Total energy} {Oxs_RungeKuttaEvolve:evolver:Energy calc count} {Oxs_RungeKuttaEvolve:evolver:Max dm/dt} Oxs_RungeKuttaEvolve:evolver:dE/dt {Oxs_RungeKuttaEvolve:evolver:Delta E} Oxs_UniformExchange::Energy {Oxs_UniformExchange::Max Spin Ang} {Oxs_UniformExchange::Stage Max Spin Ang} {Oxs_UniformExchange::Run Max Spin Ang} Oxs_Demag::Energy    Oxs_FixedZeeman::Energy Oxs_TimeDriver::Iteration {Oxs_TimeDriver::Stage iteration} Oxs_TimeDriver::Stage Oxs_TimeDriver::mx   Oxs_TimeDriver::my   Oxs_TimeDriver::mz   {Oxs_TimeDriver::Last time step} {Oxs_TimeDriver::Simulation time}
# Units:                        J                                             {}                                         deg/ns                                 J/s                                   J                                 J                              deg                                    deg                                      deg                           J                       J                       {}                            {}                          {}                   {}                   {}                   {}                          s                                 s
                       5.8955443522276723e-18                            1                                            253.68610633317888                   -3.4112693422093202e-11                  0                                9.0375682026290676e-20             2.147067958362912                      2.147067958362912                        2.147067958362912              5.3857323022933248e-19   5.2665954399720485e-18      0                             0                           0                     0.96671597969141987  0.12574904562458797 -5.9031259592751805e-15        0                                0
                       5.895543074761625e-18                            3                                            253.68474294872894                   -3.4113688894045359e-11                 -1.277466047317148e-24              9.0376587735537494e-20             2.1470780883052742                     2.1470780883052742                       2.1470780883052742             5.3857251700786982e-19   5.2665939700182173e-18      1                             1                           0                     0.96671576214296795  0.12574871598614898  1.0709790924525764e-05        3.7447852928623401e-14              3.7447852928623401e-14
                       5.8955379628030681e-18                            5                                            253.79171967692321                   -3.4140563239131892e-11                 -5.1119585566109213e-24              9.0382456554540153e-20             2.147143853809292                      2.147143853809292                        2.147143853809292              5.3857126576334452e-19   5.2665842404851832e-18      2                             2                           0                     0.96671433436095566  0.12574646562232272  5.3533924173111164e-05        1.497914117144936e-13              1.87239264643117e-13
                       5.8955208047767751e-18                            7                                            255.42017082747722                   -3.4494862587319151e-11                 -1.7158026292490583e-23              9.0428054028629538e-20             2.1476556479578024                     2.1476556479578024                       2.1476556479578024             5.3858556716337232e-19   5.2665071835847739e-18      3                             3                           0                     0.96670311126579866  0.12572816517925639  0.00019630172940483787        4.9999999999999999e-13              6.8723926464311701e-13
                       5.8955033683643606e-18                            9                                            258.47467649959793                   -3.5254187685367516e-11                 -1.7436412414715076e-23              9.0513642888070401e-20             2.148616570703874                      2.148616570703874                        2.148616570703874              5.3862812560282032e-19   5.2663615998734702e-18      4                             4                           0                     0.96668196092124792  0.12569328885484091  0.00033877297898944598        4.9999999999999999e-13              1.187239264643117e-12
# Table End
