# ODT 1.0
# Table Start
# Title: mmArchive Data Table, Wed May 29 22:32:59 EDT 2019
# Columns: {Oxs_RungeKuttaEvolve:evolver:Total energy} {Oxs_RungeKuttaEvolve:evolver:Energy calc count} {Oxs_RungeKuttaEvolve:evolver:Max dm/dt} Oxs_RungeKuttaEvolve:evolver:dE/dt {Oxs_RungeKuttaEvolve:evolver:Delta E} Oxs_Demag::Energy    Oxs_UniformExchange:NiFe:Energy {Oxs_UniformExchange:NiFe:Max Spin Ang} {Oxs_UniformExchange:NiFe:Stage Max Spin Ang} {Oxs_UniformExchange:NiFe:Run Max Spin Ang} Oxs_TimeDriver::Iteration {Oxs_TimeDriver::Stage iteration} Oxs_TimeDriver::Stage Oxs_TimeDriver::mx   Oxs_TimeDriver::my   Oxs_TimeDriver::mz   {Oxs_TimeDriver::Last time step} {Oxs_TimeDriver::Simulation time}
# Units:                        J                                             {}                                         deg/ns                                 J/s                                   J                            J                           J                                  deg                                        deg                                          deg                                {}                            {}                          {}                   {}                   {}                   {}                          s                                 s                
                       6.3183248152766672e-18                            1                                            2204.402270364616                    -3.2058772303226072e-07                  0                             4.5115425690159024e-18       1.8067822462607647e-18                 11.364876967033668                         11.364876967033668                           11.364876967033668                 0                             0                           0                    -1.5497207641601563e-16  1.4826655387878418e-16  0.29534603935136933        0                                0                         
                       6.3169436956710945e-18                            7                                            2204.6703637570808                   -3.2036886465530001e-07                 -1.381119605572296e-21           4.5099762242418174e-18       1.806967471429277e-18                 11.365922981136547                         11.365922981136547                           11.365922981136547                 1                             1                           0                    -1.9073486328125001e-16  1.2591481208801269e-16  0.29527791469427872        4.3095582542784566e-15              4.3095582542784566e-15       
                       6.3114286010282353e-18                            13                                           2205.6998638401833                   -3.1950082546649842e-07                 -5.5150946428596809e-21           4.5037169432549998e-18       1.8077116577732347e-18                 11.370081472404426                         11.370081472404426                           11.370081472404426                 2                             2                           0                    -1.3113021850585939e-16  1.430511474609375e-16  0.29500549249344454        1.7238233017113826e-14              2.1547791271392285e-14       
                       6.2895150090919446e-18                            19                                           2209.165617040358                    -3.1613664093873312e-07                 -2.1913591936290161e-20           4.4787774883386774e-18       1.8107375207532677e-18                 11.386324742434113                         11.386324742434113                           11.386324742434113                 3                             3                           0                    -1.6689300537109377e-16  1.430511474609375e-16  0.2939170306084859         6.8952932068455306e-14              9.0500723339847584e-14       
                       6.2040419801163354e-18                            25                                           2214.5409406510894                   -3.0393259975928208e-07                 -8.5473028975608705e-20           4.3805856741176746e-18       1.8234563059986612e-18                 11.446159834683131                         11.446159834683131                           11.446159834683131                 4                             4                           0                    -1.6689300537109377e-16  1.3634562492370607e-16  0.28958306404257433        2.7581172827382122e-13              3.6631245161366881e-13       
# Table End
