# ODT 1.0
# Table Start
# Title: mmArchive Data Table, Tue Jun 09 18:26:35 EDT 2015
# Columns: {Oxs_RungeKuttaEvolve:evolver:Total energy} {Oxs_RungeKuttaEvolve:evolver:Energy calc count} {Oxs_RungeKuttaEvolve:evolver:Max dm/dt} Oxs_RungeKuttaEvolve:evolver:dE/dt {Oxs_RungeKuttaEvolve:evolver:Delta E} Oxs_UniformExchange::Energy {Oxs_UniformExchange::Max Spin Ang} {Oxs_UniformExchange::Stage Max Spin Ang} {Oxs_UniformExchange::Run Max Spin Ang} Oxs_Demag::Energy    Oxs_FixedZeeman::Energy Oxs_TimeDriver::Iteration {Oxs_TimeDriver::Stage iteration} Oxs_TimeDriver::Stage Oxs_TimeDriver::mx   Oxs_TimeDriver::my   Oxs_TimeDriver::mz   {Oxs_TimeDriver::Last time step} {Oxs_TimeDriver::Simulation time}
# Units:                        J                                             {}                                         deg/ns                                 J/s                                   J                                 J                              deg                                    deg                                      deg                           J                       J                       {}                            {}                          {}                   {}                   {}                   {}                          s                                 s                
                       5.8955443522304402e-18                            1                                            253.6861074499482                    -3.4112693421633348e-11                  0                                9.0375682025340458e-20             2.147067958637582                      2.147067958637582                        2.147067958637582              5.3857323023023776e-19   5.2665954399748619e-18      0                             0                           0                     0.96671597969290479  0.12574904561919942  3.2176626416028486e-16        0                                0                         
                       5.8955430747718286e-18                            7                                            253.68474133506822                   -3.4113688891654141e-11                 -1.2774586119349843e-24              9.0376587727969348e-20             2.1470780885139407                     2.1470780885139407                       2.1470780885139407             5.3857251701532019e-19   5.2665939700285388e-18      1                             1                           0                     0.96671576214549548  0.12574871598283027  1.0709789154073001e-05        3.7447852763771591e-14              3.7447852763771591e-14       
                       5.8955379632785448e-18                            13                                           253.79096487345922                   -3.4140562321001239e-11                 -5.1114932833316405e-24              9.0382456146414196e-20             2.1471438502943245                     2.1471438502943245                       2.1471438502943245             5.3857126614838327e-19   5.2665842409837479e-18      2                             2                           0                     0.96671433443156496  0.12574646575202497  5.35338115382717e-05        1.4979141105508636e-13              1.8723926381885795e-13       
                       5.8955173949566422e-18                            19                                           255.80835597246306                   -3.4613190714191047e-11                 -2.0568321902851614e-23              9.0441834450029272e-20             2.1478104046743161                     2.1478104046743161                       2.1478104046743161             5.3859178096079724e-19   5.2664837795458156e-18      3                             3                           0                     0.96669970886804557  0.12572257124176986  0.00022457746534206228        5.9916564422034545e-13              7.8640490803920334e-13       
                       5.8954553034051628e-18                            25                                           271.20304443832407                   -3.9119027757716509e-11                 -6.2091551479726875e-23              9.0923837349720319e-20             2.1532757776633971                     2.1532757776633971                       2.1532757776633971             5.3887050821124838e-19   5.265660957844194e-18      4                             4                           0                     0.96658028065487411  0.12552482894919401  0.00070832564215980731        1.7032693646712192e-12              2.4896742727104225e-12       
# Table End
