# ODT 1.0
# Table Start
# Title: mmArchive Data Table, Tue Jun 09 18:26:34 EDT 2015
# Columns: {Oxs_RungeKuttaEvolve:evolver:Total energy} {Oxs_RungeKuttaEvolve:evolver:Energy calc count} {Oxs_RungeKuttaEvolve:evolver:Max dm/dt} Oxs_RungeKuttaEvolve:evolver:dE/dt {Oxs_RungeKuttaEvolve:evolver:Delta E} Oxs_UniformExchange::Energy {Oxs_UniformExchange::Max Spin Ang} {Oxs_UniformExchange::Stage Max Spin Ang} {Oxs_UniformExchange::Run Max Spin Ang} Oxs_Demag::Energy    Oxs_FixedZeeman::Energy Oxs_TimeDriver::Iteration {Oxs_TimeDriver::Stage iteration} Oxs_TimeDriver::Stage Oxs_TimeDriver::mx   Oxs_TimeDriver::my   Oxs_TimeDriver::mz   {Oxs_TimeDriver::Last time step} {Oxs_TimeDriver::Simulation time}
# Units:                        J                                             {}                                         deg/ns                                 J/s                                   J                                 J                              deg                                    deg                                      deg                           J                       J                       {}                            {}                          {}                   {}                   {}                   {}                          s                                 s                
                       5.8955443522304402e-18                            1                                            253.6861074499482                    -3.4112693421633348e-11                  0                                9.0375682025340458e-20             2.147067958637582                      2.147067958637582                        2.147067958637582              5.3857323023023776e-19   5.2665954399748619e-18      0                             0                           0                     0.96671597969290479  0.12574904561919942  3.2176626416028486e-16        0                                0                         
                       5.8955430747718286e-18                            7                                            253.68474133513095                   -3.4113688891654147e-11                 -1.2774586119351898e-24              9.0376587727969348e-20             2.1470780885139407                     2.1470780885139407                       2.1470780885139407             5.3857251701532019e-19   5.2665939700285388e-18      1                             1                           0                     0.96671576214549548  0.12574871598283027  1.0709789154073001e-05        3.7447852763771591e-14              3.7447852763771591e-14       
                       5.895537963278544e-18                            13                                           253.79096512701577                   -3.4140562321022009e-11                 -5.1114932840917776e-24              9.038245614640146e-20             2.1471438502941549                     2.1471438502941549                       2.1471438502941549             5.3857126614839598e-19   5.2665842409837472e-18      2                             2                           0                     0.96671433443156474  0.12574646575202508  5.3533811538276464e-05        1.4979141105508636e-13              1.8723926381885795e-13       
                       5.8955173949558248e-18                            19                                           255.80925643359359                   -3.4613190982065591e-11                 -2.0568322719261569e-23              9.0441834403527922e-20             2.1478104023371132                     2.1478104023371132                       2.1478104023371132             5.3859178100922436e-19   5.2664837795430731e-18      3                             3                           0                     0.96669970886745271  0.12572257124220795  0.00022457746539538925        5.9916564422034545e-13              7.8640490803920334e-13       
                       5.8954607976307831e-18                            31                                           268.90756432762879                   -3.8563042094717097e-11                 -5.6597325042085015e-23              9.0865981540797477e-20             2.1526061184807124                     2.1526061184807124                       2.1526061184807124             5.3883484306645141e-19   5.2657599730235343e-18      4                             4                           0                     0.96659464788966953  0.12554864868893478  0.00066812979549740043        1.5611979203862033e-12              2.3476028284254068e-12       
# Table End
