# ODT 1.0
# Table Start
# Title: mmArchive Data Table, Tue Jun 08 18:15:24 EDT 2021
# Columns: {Oxs_RungeKuttaEvolve:evolver:Total energy} {Oxs_RungeKuttaEvolve:evolver:Energy calc count} {Oxs_RungeKuttaEvolve:evolver:Max dm/dt} Oxs_RungeKuttaEvolve:evolver:dE/dt {Oxs_RungeKuttaEvolve:evolver:Delta E} Oxs_UniformExchange::Energy {Oxs_UniformExchange::Max Spin Ang} {Oxs_UniformExchange::Stage Max Spin Ang} {Oxs_UniformExchange::Run Max Spin Ang} Oxs_Demag::Energy    Oxs_FixedZeeman::Energy Oxs_TimeDriver::Iteration {Oxs_TimeDriver::Stage iteration} Oxs_TimeDriver::Stage Oxs_TimeDriver::mx   Oxs_TimeDriver::my   Oxs_TimeDriver::mz   {Oxs_TimeDriver::Last time step} {Oxs_TimeDriver::Simulation time}
# Units:                        J                                             {}                                         deg/ns                                 J/s                                   J                                 J                              deg                                    deg                                      deg                           J                       J                       {}                            {}                          {}                   {}                   {}                   {}                          s                                 s
                       4.1150227428891047e-18                            1                                            226.71299593264771                   -4.0030573433772819e-11                  0                                9.0375682026290676e-20             2.147067958362912                      2.147067958362912                        2.147067958362912              5.3857323022933248e-19   3.4860738306334817e-18      0                             0                           0                     0.96671597969141987  0.12574904562458797 -5.9031259592751805e-15        0                                0
                       4.1150210654583411e-18                            7                                            226.71524399170107                   -4.0032185749992859e-11                 -1.6774307636028199e-24              9.0376257642226791e-20             2.147073804621261                      2.147073804621261                        2.147073804621261              5.385729366613249e-19   3.4860718711547899e-18      1                             1                           0                     0.96671564907345464  0.12575019213373378 -5.3429271808657002e-05        4.190319995075305e-14              4.190319995075305e-14
                       4.1150143528755945e-18                            13                                           226.87322561971689                   -4.007337703378492e-11                 -6.7125827473445505e-24              9.0379960200782866e-20             2.147111584353762                      2.147111584353762                        2.147111584353762              5.3857599960142739e-19   3.4860583930733838e-18      2                             2                           0                     0.96671337350843733  0.12575807003527184 -0.00026707376419837748        1.676127998030122e-13              2.0951599975376525e-13
                       4.1149942236617241e-18                            19                                           228.60663385470127                   -4.0525552864434778e-11                 -2.0129213870273112e-23              9.0404360293148649e-20             2.1473610145021271                     2.1473610145021271                       2.1473610145021271             5.3862525090284916e-19   3.4859646124657262e-18      3                             3                           0                     0.96669753145508863  0.12581283504426696 -0.00090369267627738109        4.9999999999999999e-13              7.0951599975376524e-13
                       4.1149737455600553e-18                            25                                           231.6582251355342                    -4.1468337985840397e-11                 -2.0478101668614228e-23              9.0448979907023021e-20             2.1478145084966722                     2.1478145084966722                       2.1478145084966722             5.3873409900242545e-19   3.4857906666506068e-18      4                             4                           0                     0.96666813843487265  0.12591436306057918 -0.0015392513338072329        4.9999999999999999e-13              1.2095159997537651e-12
# Table End
