# ODT 1.0
# Table Start
# Title: mmArchive Data Table, Tue Jun 09 18:26:32 EDT 2015
# Columns: {Oxs_RungeKuttaEvolve:evolver:Total energy} {Oxs_RungeKuttaEvolve:evolver:Energy calc count} {Oxs_RungeKuttaEvolve:evolver:Max dm/dt} Oxs_RungeKuttaEvolve:evolver:dE/dt {Oxs_RungeKuttaEvolve:evolver:Delta E} Oxs_UniformExchange::Energy {Oxs_UniformExchange::Max Spin Ang} {Oxs_UniformExchange::Stage Max Spin Ang} {Oxs_UniformExchange::Run Max Spin Ang} Oxs_Demag::Energy    Oxs_FixedZeeman::Energy Oxs_TimeDriver::Iteration {Oxs_TimeDriver::Stage iteration} Oxs_TimeDriver::Stage Oxs_TimeDriver::mx   Oxs_TimeDriver::my   Oxs_TimeDriver::mz   {Oxs_TimeDriver::Last time step} {Oxs_TimeDriver::Simulation time}
# Units:                        J                                             {}                                         deg/ns                                 J/s                                   J                                 J                              deg                                    deg                                      deg                           J                       J                       {}                            {}                          {}                   {}                   {}                   {}                          s                                 s                
                       5.8955443522304402e-18                            1                                            253.6861074499482                    -3.4112693421633348e-11                  0                                9.0375682025340458e-20             2.147067958637582                      2.147067958637582                        2.147067958637582              5.3857323023023776e-19   5.2665954399748619e-18      0                             0                           0                     0.96671597969290479  0.12574904561919942  3.2176626416028486e-16        0                                0                         
                       5.895543074764403e-18                            3                                            253.68474405227397                   -3.4113688893595166e-11                 -1.277466037509414e-24              9.037658773455143e-20             2.1470780885757867                     2.1470780885757867                       2.1470780885757867             5.3857251700881074e-19   5.2665939700210407e-18      1                             1                           0                     0.96671576214445443  0.12574871598076237  1.0709790785931151e-05        3.7447852763771591e-14              3.7447852763771591e-14       
                       5.8955379628063507e-18                            5                                            253.79172095606583                   -3.4140563242271307e-11                 -5.1119580524756643e-24              9.0382456551392991e-20             2.1471438539960981                     2.1471438539960981                       2.1471438539960981             5.3857126576694119e-19   5.2665842404880159e-18      2                             2                           0                     0.96671433436243048  0.12574646561700842  5.353391756375202e-05        1.4979141105508636e-13              1.8723926381885795e-13       
                       5.8955188297049571e-18                            7                                            255.73063377288335                   -3.4561106229553444e-11                 -1.9133101393265145e-23              9.0435799530575889e-20             2.147742604267143                      2.147742604267143                        2.147742604267143              5.3858899667711212e-19   5.2664940334972692e-18      3                             3                           0                     0.96670119945798971  0.12572502262801413  0.00021256930142646616        5.5703397720282254e-13              7.4427324102168053e-13       
                       5.8955011659275601e-18                            11                                           258.94398560588473                   -3.5376876371196167e-11                 -1.7663777396754506e-23              9.0527089694094836e-20             2.1487675078830746                     2.1487675078830746                       2.1487675078830746             5.3863538049468125e-19   5.2663386957387845e-18      4                             4                           0                     0.96667863528725784  0.12568779135887356  0.00035647335944892413        5.0515955427882243e-13              1.2494327953005029e-12       
# Table End
