# ODT 1.0
# Table Start
# Title: mmArchive Data Table, Tue Jun 09 18:26:29 EDT 2015
# Columns: {Oxs_RungeKuttaEvolve:evolver:Total energy} {Oxs_RungeKuttaEvolve:evolver:Energy calc count} {Oxs_RungeKuttaEvolve:evolver:Max dm/dt} Oxs_RungeKuttaEvolve:evolver:dE/dt {Oxs_RungeKuttaEvolve:evolver:Delta E} Oxs_UniformExchange::Energy {Oxs_UniformExchange::Max Spin Ang} {Oxs_UniformExchange::Stage Max Spin Ang} {Oxs_UniformExchange::Run Max Spin Ang} Oxs_Demag::Energy    Oxs_FixedZeeman::Energy Oxs_TimeDriver::Iteration {Oxs_TimeDriver::Stage iteration} Oxs_TimeDriver::Stage Oxs_TimeDriver::mx   Oxs_TimeDriver::my   Oxs_TimeDriver::mz   {Oxs_TimeDriver::Last time step} {Oxs_TimeDriver::Simulation time}
# Units:                        J                                             {}                                         deg/ns                                 J/s                                   J                                 J                              deg                                    deg                                      deg                           J                       J                       {}                            {}                          {}                   {}                   {}                   {}                          s                                 s                
                       4.115022742898014e-18                            1                                            226.71299705095393                   -4.0030573433653427e-11                  0                                9.0375682025340458e-20             2.147067958637582                      2.147067958637582                        2.147067958637582              5.3857323023023776e-19   3.4860738306424358e-18      0                             0                           0                     0.96671597969290479  0.12574904561919942  3.2176626416028486e-16        0                                0                         
                       4.1150210654548883e-18                            3                                            226.71525103070857                   -4.0032185755917165e-11                 -1.6774431257148361e-24              9.0376257642809048e-20             2.1470738049439144                     2.1470738049439144                       2.1470738049439144             5.3857293666081492e-19   3.4860718711512639e-18      1                             1                           0                     0.96671564907287821  0.12575019213590211 -5.3429273293425691e-05        4.1903199744057318e-14              4.1903199744057318e-14       
                       4.1150143520980619e-18                            5                                            226.8747005404434                    -4.0073379067555068e-11                 -6.7133568265635839e-24              9.0379959978761036e-20             2.1471115873333813                     2.1471115873333813                       2.1471115873333813             5.3857599986217596e-19   3.4860583922571246e-18      2                             2                           0                     0.9667133733730604   0.12575807052630827 -0.00026707387699843394        1.6761279897622927e-13              2.0951599872028658e-13       
                       4.114993307271951e-18                            7                                            228.86120041387861                   -4.0557011322363006e-11                 -2.1044826110352883e-23              9.0405863190562305e-20             2.1473767713515994                     2.1473767713515994                       2.1473767713515994             5.3862883875593789e-19   3.4859586053254509e-18      3                             3                           0                     0.96669651654764677  0.12581634222537391 -0.0009317392748516176        5.2204401296678781e-13              7.3156001168707439e-13       
                       4.1149715135114664e-18                            9                                            232.37989793263492                   -4.1596555319055685e-11                 -2.1793760485218363e-23              9.0454762334334023e-20             2.1478750113676042                     2.1478750113676042                       2.1478750113676042             5.3874911968151717e-19   3.4857676314956149e-18      4                             4                           0                     0.96666424532615058  0.12592780427578543 -0.0016061187536264702        5.3060439069848305e-13              1.2621644023855574e-12       
# Table End
