# ODT 1.0
# Table Start
# Title: mmArchive Data Table, Tue Jun 09 18:26:29 EDT 2015
# Columns: {Oxs_RungeKuttaEvolve:evolver:Total energy} {Oxs_RungeKuttaEvolve:evolver:Energy calc count} {Oxs_RungeKuttaEvolve:evolver:Max dm/dt} Oxs_RungeKuttaEvolve:evolver:dE/dt {Oxs_RungeKuttaEvolve:evolver:Delta E} Oxs_UniformExchange::Energy {Oxs_UniformExchange::Max Spin Ang} {Oxs_UniformExchange::Stage Max Spin Ang} {Oxs_UniformExchange::Run Max Spin Ang} Oxs_Demag::Energy    Oxs_FixedZeeman::Energy Oxs_TimeDriver::Iteration {Oxs_TimeDriver::Stage iteration} Oxs_TimeDriver::Stage Oxs_TimeDriver::mx   Oxs_TimeDriver::my   Oxs_TimeDriver::mz   {Oxs_TimeDriver::Last time step} {Oxs_TimeDriver::Simulation time}
# Units:                        J                                             {}                                         deg/ns                                 J/s                                   J                                 J                              deg                                    deg                                      deg                           J                       J                       {}                            {}                          {}                   {}                   {}                   {}                          s                                 s                
                       4.115022742898014e-18                            1                                            226.71299705095393                   -4.0030573433653427e-11                  0                                9.0375682025340458e-20             2.147067958637582                      2.147067958637582                        2.147067958637582              5.3857323023023776e-19   3.4860738306424358e-18      0                             0                           0                     0.96671597969290479  0.12574904561919942  3.2176626416028486e-16        0                                0                         
                       4.1150210654548922e-18                            3                                            226.71525103917472                   -4.0032185755938607e-11                 -1.6774431216159556e-24              9.0376257642762224e-20             2.1470738049435667                     2.1470738049435667                       2.1470738049435667             5.3857293666086403e-19   3.4860718711512662e-18      1                             1                           0                     0.96671564907287888  0.12575019213590363 -5.342927343433181e-05        4.1903199744057318e-14              4.1903199744057318e-14       
                       4.1150143520983816e-18                            5                                            226.87470118380128                   -4.0073379072727473e-11                 -6.7133565105038966e-24              9.0379959975415913e-20             2.1471115873100119                     2.1471115873100119                       2.1471115873100119             5.3857599986627386e-19   3.4860583922566917e-18      2                             2                           0                     0.96671337337299879  0.12575807052662663 -0.00026707388615015672        1.6761279897622927e-13              2.0951599872028658e-13       
                       4.1149933058616133e-18                            7                                            228.86144063332529                   -4.0557062446159525e-11                 -2.1046236768571487e-23              9.0405865513347303e-20             2.1473767956574674                     2.1473767956574674                       2.1473767956574674             5.3862884474222591e-19   3.4859585956060398e-18      3                             3                           0                     0.96669651490451425  0.12581634789398174 -0.00093178423006837359        5.2207913145373557e-13              7.3159513017402225e-13       
                       4.1149715105206805e-18                            9                                            232.38057345236902                   -4.1596739577429274e-11                 -2.1795340932313549e-23              9.0454770171244977e-20             2.1478750921872587                     2.1478750921872587                       2.1478750921872587             5.3874914181562721e-19   3.4857675985338085e-18      4                             4                           0                     0.96666423975289595  0.12592782349515932 -0.0016062127964485923        5.3064288539196979e-13              1.2622380155659919e-12       
# Table End
