# ODT 1.0
# Table Start
# Title: mmArchive Data Table, Wed May 29 22:08:48 EDT 2019
# Columns: {Oxs_CGEvolve::Max mxHxm} {Oxs_CGEvolve::Total energy} {Oxs_CGEvolve::Delta E} {Oxs_CGEvolve::Bracket count} {Oxs_CGEvolve::Line min count} {Oxs_CGEvolve::Conjugate cycle count} {Oxs_CGEvolve::Cycle count} {Oxs_CGEvolve::Cycle sub count} {Oxs_CGEvolve::Energy calc count} Oxs_UniaxialAnisotropy::Energy Oxs_UniformExchange::Energy {Oxs_UniformExchange::Max Spin Ang} {Oxs_UniformExchange::Stage Max Spin Ang} {Oxs_UniformExchange::Run Max Spin Ang} Oxs_UZeeman::Energy  Oxs_UZeeman::B       Oxs_UZeeman::Bx      Oxs_UZeeman::By      Oxs_UZeeman::Bz      Oxs_MinDriver::Iteration {Oxs_MinDriver::Stage iteration} Oxs_MinDriver::Stage Oxs_MinDriver::mx    Oxs_MinDriver::my    Oxs_MinDriver::mz   
# Units:              A/m                         J                          J                         {}                             {}                                {}                               {}                            {}                               {}                               J                             J                              deg                                    deg                                      deg                            J                 mT                   mT                   mT                   mT                        {}                           {}                         {}                 {}                   {}                   {}           
              307055.20878034667          2.2393977693921169e-16       2.2393977693921169e-16        0                              0                                 1                                1                             0                                1                                1.1928139386516286e-18          0                               0                                      0                                        0                              2.2274696300056008e-16  2735                 0                    0                   -2735                   0                            0                          0                    0                    0                    1.0000000000000002 
              306441.35034356348          2.2391905643031888e-16      -2.0720508892806086e-20        1                              0                                 1                                1                             0                                2                                1.1721606680658129e-18          0                               0                                      0                                        0                              2.2274689576225311e-16  2735                 0                    0                   -2735                   1                            1                          0                    0.00027673221644708516  8.9045893837910872e-05  0.99999969814041101
              174077.04043943813          2.2072066402370712e-16      -3.198392406611763e-18        2                              0                                 1                                1                             0                                3                                6.6835489413884227e-19          0                               0                                      0                                        0                              2.2005230912956829e-16  2735                 0                    0                   -2735                   2                            2                          0                    0.055345893089229964  0.017800503437531416  0.98790262352091074
              84453.841679286023          2.1960507883392571e-16      -1.115585189781408e-18        3                              0                                 2                                2                             0                                4                                4.4613079527198145e-18          0                               0                                      0                                        0                              2.1514377088120589e-16  2735                 0                    0                   -2735                   3                            3                          0                    0.091582837619710936  0.029622047212532338  0.96586623666184646
              54203.832731775961          2.1938024082599242e-16      -2.2483800793328647e-19        4                              0                                 2                                2                             0                                5                                6.925261204375207e-18          0                               0                                      0                                        0                              2.1245497962161717e-16  2735                 0                    0                   -2735                   4                            4                          0                    0.10612143633541357  0.034353543032842465  0.9537951797847064 
              54476.003714012462          2.1945792089166763e-16       7.768006567520153e-20        4                              0                                 3                                3                             0                                6                                6.925261204375207e-18          0                               0                                      0                                        0                              2.1253265968729242e-16  2736.0000000000005   0                    0                   -2736.0000000000005     5                            0                          1                    0.10612143633541357  0.034353543032842465  0.9537951797847064 
              21514.540015312381          2.1933451423532733e-16      -1.2340665634029793e-19        5                              0                                 3                                3                             0                                7                                1.0408895791104866e-17          0                               0                                      0                                        0                              2.0892561844422248e-16  2736.0000000000005   0                    0                   -2736.0000000000005     6                            1                          1                    0.12065745644152606  0.039379155282075182  0.93760765097861432
              13436.993347061203          2.1933428757163653e-16      -2.2666369079600379e-22        6                              0                                 3                                3                             0                                8                                1.4515187282129018e-17          0                               0                                      0                                        0                              2.0481910028950752e-16  2736.0000000000005   0                    0                   -2736.0000000000005     7                            2                          1                    0.13502813319511392  0.0443168218342452   0.91917859058183238
              9741.8751237308225          2.193210682965229e-16      -1.321927511362987e-20        6                              1                                 3                                3                             0                                9                                1.2340528616899996e-17          0                               0                                      0                                        0                              2.0698053967962289e-16  2736.0000000000005   0                    0                   -2736.0000000000005     8                            3                          1                    0.12769679249566346  0.041802417942874232  0.92887860786256871
              3116.0221050346131          2.1931861070510427e-16      -2.4575914186263986e-21        7                              1                                 3                                4                             1                                10                               1.235632029412323e-17          0                               0                                      0                                        0                              2.0696229041098105e-16  2736.0000000000005   0                    0                   -2736.0000000000005     9                            4                          1                    0.12293083362325369  0.040846951418934879  0.92879670955813332
              3480.4937182089029          2.1939425481709661e-16       7.5644111992333132e-20        7                              1                                 4                                5                             0                                11                               1.235632029412323e-17          0                               0                                      0                                        0                              2.0703793452297338e-16  2737.0000000000005   0                    0                   -2737.0000000000005     10                           0                          2                    0.12293083362325369  0.040846951418934879  0.92879670955813332
              1227.5784691173797          2.1939395621944996e-16      -2.9859764664794166e-22        8                              1                                 4                                5                             0                                12                               1.2535379866930977e-17          0                               0                                      0                                        0                              2.0685857635251899e-16  2737.0000000000005   0                    0                   -2737.0000000000005     11                           1                          2                    0.12239687824887618  0.040958458344351911  0.92799208755041773
              620.59180942413923          2.1939392619811187e-16      -3.0021338090439312e-23        9                              2                                 4                                5                             0                                14                               1.261639317405518e-17          0                               0                                      0                                        0                              2.067775330240567e-16  2737.0000000000005   0                    0                   -2737.0000000000005     12                           2                          2                    0.12216002059512787  0.041008382759373151  0.92762851757479159
              32.321880403193376          2.1939390685634343e-16      -1.934176844201836e-23        10                             3                                 4                                6                             1                                16                               1.259136129673655e-17          0                               0                                      0                                        0                              2.068025455596069e-16  2737.0000000000005   0                    0                   -2737.0000000000005     13                           3                          2                    0.12155255405222772  0.040864525125027203  0.92774072677341979
              15.521979159315332          2.1939390681757764e-16      -3.8765783522015063e-26        11                             3                                 4                                7                             2                                17                               1.2594099718414833e-17          0                               0                                      0                                        0                              2.0679980709916283e-16  2737.0000000000005   0                    0                   -2737.0000000000005     14                           4                          2                    0.12155472037313673  0.040867072134083832  0.92772844171534219
              391.59314224313954          2.1946946392649221e-16       7.555710891456853e-20        11                             3                                 5                                8                             0                                18                               1.2594099718414833e-17          0                               0                                      0                                        0                              2.0687536420807737e-16  2738.0000000000005   0                    0                   -2738.0000000000005     15                           0                          3                    0.12155472037313673  0.040867072134083832  0.92772844171534219
              203.52293104918417          2.1946945499160681e-16      -8.9348854027369974e-24        12                             3                                 5                                8                             0                                19                               1.2681956190554273e-17          0                               0                                      0                                        0                              2.0678749880105252e-16  2738.0000000000005   0                    0                   -2738.0000000000005     16                           1                          3                    0.12188627352807942  0.040976052874721246  0.92733441105126779
              222.88190484046402          2.1946945281027935e-16      -2.1813274588456448e-24        12                             4                                 5                                8                             0                                20                               1.2654935014680455e-17          0                               0                                      0                                        0                              2.068145177955989e-16  2738.0000000000005   0                    0                   -2738.0000000000005     17                           2                          3                    0.12178442024699995  0.040942574891207013  0.92745557719303306
              86.302892255677975          2.1946945120187166e-16      -1.6084076861423125e-24        13                             4                                 5                                9                             1                                21                               1.266120233458953e-17          0                               0                                      0                                        0                              2.0680824886728214e-16  2738.0000000000005   0                    0                   -2738.0000000000005     18                           3                          3                    0.12167597334587284  0.040924845961444557  0.9274274643091146 
              60.22413889048768           2.1946945101851152e-16      -1.8336014175211357e-25        14                             5                                 5                                9                             1                                23                               1.2664163245226942e-17          0                               0                                      0                                        0                              2.0680528777328458e-16  2738.0000000000005   0                    0                   -2738.0000000000005     19                           4                          3                    0.12162485034732473  0.04091648709800013  0.92741418534219178
              400.01702681797866          2.1954498253340314e-16       7.5531514891612474e-20        14                             5                                 6                                10                            0                                24                               1.2664163245226942e-17          0                               0                                      0                                        0                              2.0688081928817622e-16  2739.0000000000005   0                    0                   -2739.0000000000005     20                           0                          4                    0.12162485034732473  0.04091648709800013  0.92741418534219178
              234.85328824379155          2.1954497132081334e-16      -1.1212589797962433e-23        15                             6                                 6                                10                            0                                26                               1.2725050803453182e-17          0                               0                                      0                                        0                              2.0681992051736017e-16  2739.0000000000005   0                    0                   -2739.0000000000005     21                           1                          4                    0.12186072016626162  0.040998689292138665  0.9271411857276225 
              96.285270762865181          2.1954496952050791e-16      -1.8003054229526002e-24        16                             6                                 6                                11                            1                                27                               1.2732273364563466e-17          0                               0                                      0                                        0                              2.0681269615594444e-16  2739.0000000000005   0                    0                   -2739.0000000000005     22                           2                          4                    0.12174861059141948  0.040981550054158308  0.92710880005127649
              78.49975767344884           2.195449694092485e-16      -1.1125941365436764e-25        17                             6                                 6                                11                            1                                28                               1.2739514071032623e-17          0                               0                                      0                                        0                              2.0680545533821591e-16  2739.0000000000005   0                    0                   -2739.0000000000005     23                           3                          4                    0.12163653499602733  0.0409644122901913   0.92707634060386035
              57.907559626692489          2.1954496925131968e-16      -1.5792881923769531e-25        17                             7                                 6                                11                            1                                29                               1.2736367896707228e-17          0                               0                                      0                                        0                              2.0680860135461245e-16  2739.0000000000005   0                    0                   -2739.0000000000005     24                           4                          4                    0.1216851945486512   0.040971853404166959  0.92709044370072946
              397.79326418509078          2.1962047439967842e-16       7.550514835874235e-20        17                             7                                 7                                12                            0                                30                               1.2736367896707228e-17          0                               0                                      0                                        0                              2.068841065029712e-16  2740.0000000000005   0                    0                   -2740.0000000000005     25                           0                          5                    0.1216851945486512   0.040971853404166959  0.92709044370072946
              239.19448517418954          2.1962046322599088e-16      -1.1173687541503815e-23        18                             8                                 7                                12                            0                                32                               1.2797575641964271e-17          0                               0                                      0                                        0                              2.068228875840266e-16  2740.0000000000005   0                    0                   -2740.0000000000005     26                           1                          5                    0.12192315046886297  0.041054222189937595  0.92681610907112566
              102.56808680632221          2.1962046131725281e-16      -1.9087380768126247e-24        19                             8                                 7                                13                            1                                33                               1.2805200701188894e-17          0                               0                                      0                                        0                              2.0681526061606392e-16  2740.0000000000005   0                    0                   -2740.0000000000005     27                           2                          5                    0.12180883812819393  0.041036837111731811  0.92678193105120854
              82.095906266607244          2.1962046112889516e-16      -1.8835764954239855e-25        20                             8                                 7                                13                            1                                34                               1.281284491828425e-17          0                               0                                      0                                        0                              2.0680761621061088e-16  2740.0000000000005   0                    0                   -2740.0000000000005     28                           3                          5                    0.12169456210476395  0.041019453630101274  0.92674767489029375
              62.890107080691742          2.1962046099907138e-16      -1.2982377594454686e-25        20                             9                                 7                                13                            1                                35                               1.2809859279629836e-17          0                               0                                      0                                        0                              2.0681060171944155e-16  2740.0000000000005   0                    0                   -2740.0000000000005     29                           4                          5                    0.12173915707379737  0.041026237812234786  0.92676105357245342
              400.91877103004384          2.196959393208668e-16       7.5478321795423067e-20        20                             9                                 8                                14                            0                                36                               1.2809859279629836e-17          0                               0                                      0                                        0                              2.0688608004123698e-16  2741                 0                    0                   -2741                   30                           0                          6                    0.12173915707379737  0.041026237812234786  0.92676105357245342
              247.12971360989511          2.1969592799122883e-16      -1.1329637971546926e-23        21                             10                                8                                14                            0                                38                               1.2871877749468723e-17          0                               0                                      0                                        0                              2.0682405024176012e-16  2741                 0                    0                   -2741                   31                           1                          6                    0.12197911238816225  0.041109825835375632  0.92648318663087648
              110.83802939514129          2.1969592590658219e-16      -2.0846466384540206e-24        22                             10                                8                                15                            1                                39                               1.2880070994018769e-17          0                               0                                      0                                        0                              2.0681585491256343e-16  2741                 0                    0                   -2741                   32                           2                          6                    0.12186065521326422  0.041092106003143607  0.92644647506517741
              85.483196340709796          2.1969592562611007e-16      -2.8047212393224759e-25        23                             10                                8                                15                            1                                40                               1.2888503236641792e-17          0                               0                                      0                                        0                              2.0680742238946828e-16  2741                 0                    0                   -2741                   33                           3                          6                    0.12173909709413516  0.041073917918790101  0.92640870097237193
              67.491342751759959          2.1969592551162449e-16      -1.1448558358578541e-25        23                             11                                8                                15                            1                                41                               1.28855451557735e-17          0                               0                                      0                                        0                              2.06810380355851e-16  2741                 0                    0                   -2741                   34                           4                          6                    0.12178169966797979  0.041080292818937332  0.92642195139521966
# Table End
