# ODT 1.0
# Table Start
# Title: mmArchive Data Table, Tue Jun 08 18:15:23 EDT 2021
# Columns: {Oxs_RungeKuttaEvolve:evolver:Total energy} {Oxs_RungeKuttaEvolve:evolver:Energy calc count} {Oxs_RungeKuttaEvolve:evolver:Max dm/dt} Oxs_RungeKuttaEvolve:evolver:dE/dt {Oxs_RungeKuttaEvolve:evolver:Delta E} Oxs_UniformExchange::Energy {Oxs_UniformExchange::Max Spin Ang} {Oxs_UniformExchange::Stage Max Spin Ang} {Oxs_UniformExchange::Run Max Spin Ang} Oxs_Demag::Energy    Oxs_FixedZeeman::Energy Oxs_TimeDriver::Iteration {Oxs_TimeDriver::Stage iteration} Oxs_TimeDriver::Stage Oxs_TimeDriver::mx   Oxs_TimeDriver::my   Oxs_TimeDriver::mz   {Oxs_TimeDriver::Last time step} {Oxs_TimeDriver::Simulation time}
# Units:                        J                                             {}                                         deg/ns                                 J/s                                   J                                 J                              deg                                    deg                                      deg                           J                       J                       {}                            {}                          {}                   {}                   {}                   {}                          s                                 s
                       4.1150227428891047e-18                            1                                            226.71299593264771                   -4.0030573433772819e-11                  0                                9.0375682026290676e-20             2.147067958362912                      2.147067958362912                        2.147067958362912              5.3857323022933248e-19   3.4860738306334817e-18      0                             0                           0                     0.96671597969141987  0.12574904562458797 -5.9031259592751805e-15        0                                0
                       4.1150210654583411e-18                            7                                            226.71524399184685                   -4.0032185749992878e-11                 -1.6774307635962033e-24              9.0376257642226767e-20             2.147073804621261                      2.147073804621261                        2.147073804621261              5.385729366613249e-19   3.4860718711547899e-18      1                             1                           0                     0.96671564907345464  0.12575019213373378 -5.3429271808657023e-05        4.190319995075305e-14              4.190319995075305e-14
                       4.1150143528755922e-18                            13                                           226.87322621040252                   -4.0073377033840619e-11                 -6.7125827493152668e-24              9.0379960200678433e-20             2.1471115843533197                     2.1471115843533197                       2.1471115843533197             5.3857599960153187e-19   3.4860583930733815e-18      2                             2                           0                     0.966713373508437    0.12575807003527267 -0.00026707376419842697        1.676127998030122e-13              2.0951599975376525e-13
                       4.1149942236610608e-18                            19                                           228.60697610787548                   -4.0525552945163056e-11                 -2.0129214530800233e-23              9.0404360234273392e-20             2.1473610133574117                     2.1473610133574117                       2.1473610133574117             5.3862525096225052e-19   3.4859646124645375e-18      3                             3                           0                     0.96669753145485093  0.12581283504474944 -0.00090369267641543201        4.9999999999999999e-13              7.0951599975376524e-13
                       4.1149737455587518e-18                            25                                           231.65792613053813                   -4.1468337737070926e-11                 -2.0478102309548923e-23              9.0448979953511743e-20             2.1478145206760089                     2.1478145206760089                       2.1478145206760089             5.3873409895417224e-19   3.4857906666510674e-18      4                             4                           0                     0.96666813843496491  0.12591436306039175 -0.0015392513342842148        4.9999999999999999e-13              1.2095159997537651e-12
# Table End
