# ODT 1.0
# Table Start
# Title: mmArchive Data Table, Tue Jun 09 18:28:32 EDT 2015
# Columns: {Oxs_EulerEvolve:evolver:Total energy} {Oxs_EulerEvolve:evolver:Energy calc count} {Oxs_EulerEvolve:evolver:Max dm/dt} Oxs_EulerEvolve:evolver:dE/dt {Oxs_EulerEvolve:evolver:Delta E} Oxs_UniformExchange::Energy {Oxs_UniformExchange::Max Spin Ang} {Oxs_UniformExchange::Stage Max Spin Ang} {Oxs_UniformExchange::Run Max Spin Ang} Oxs_Demag::Energy    Oxs_FixedZeeman::Energy Oxs_TimeDriver::Iteration {Oxs_TimeDriver::Stage iteration} Oxs_TimeDriver::Stage Oxs_TimeDriver::mx   Oxs_TimeDriver::my   Oxs_TimeDriver::mz   {Oxs_TimeDriver::Last time step} {Oxs_TimeDriver::Simulation time}
# Units:                     J                                        {}                                    deg/ns                             J/s                              J                              J                              deg                                    deg                                      deg                           J                       J                       {}                            {}                          {}                   {}                   {}                   {}                          s                                 s                
                     5.8955443522304402e-18                      1                                       253.6861074499482               -3.4112693421633348e-11             0                              9.0375682025340458e-20             2.147067958637582                      2.147067958637582                        2.147067958637582              5.3857323023023776e-19   5.2665954399748619e-18      0                             0                           0                     0.96671597969290479  0.12574904561919942  3.2176626416028486e-16        0                                0                         
                     5.8955432132593341e-18                      2                                       253.68176118509834              -3.4113824238138419e-11            -1.1389711064449113e-24            9.0376521233112297e-20             2.1470773271727777                     2.1470773271727777                       2.1470773271727777             5.3857260432935901e-19   5.2665940876968626e-18      1                             1                           0                     0.96671577872559533  0.12574874707202843  1.1274250828902688e-05        3.9418792382917464e-14              3.9418792382917464e-14       
                     5.8955419221662494e-18                      3                                       253.69186501402078              -3.4118368264461011e-11            -1.2910930841888271e-24            9.0377794230392202e-20             2.1470915585395254                     2.1470915585395254                       2.1470915585395254             5.3857212157844496e-19   5.2665920063574125e-18      2                             2                           0                     0.96671547125556345  0.12574827716564702  2.445393745210711e-05        4.608764314450812e-14              8.5506435527425584e-14       
                     5.8955406306565028e-18                      4                                       253.71901979735549              -3.4126381072496591e-11            -1.2915097469492276e-24            9.0379407613610768e-20             2.147109616000284                      2.147109616000284                        2.147109616000284              5.3857188145592607e-19   5.2665893415869657e-18      3                             3                           0                     0.96671507928137868  0.125747666046163    3.7632997757989607e-05        4.6093420722683918e-14              1.3159985625010949e-13       
                     5.8955393386522236e-18                      5                                       253.76316198838538              -3.4137861254162188e-11            -1.2920042793072215e-24            9.0381361286746582e-20             2.1471314984951069                     2.1471314984951069                       2.1471314984951069             5.3857188385599011e-19   5.2665860935094864e-18      4                             4                           0                     0.96671460282084687  0.12574691374441968  5.0810343715453997e-05        4.6095455285522883e-14              1.7769531153563237e-13       
# Table End
