# ODT 1.0
# Table Start
# Title: mmArchive Data Table, Tue Jun 08 18:15:23 EDT 2021
# Columns: {Oxs_RungeKuttaEvolve:evolver:Total energy} {Oxs_RungeKuttaEvolve:evolver:Energy calc count} {Oxs_RungeKuttaEvolve:evolver:Max dm/dt} Oxs_RungeKuttaEvolve:evolver:dE/dt {Oxs_RungeKuttaEvolve:evolver:Delta E} Oxs_UniformExchange::Energy {Oxs_UniformExchange::Max Spin Ang} {Oxs_UniformExchange::Stage Max Spin Ang} {Oxs_UniformExchange::Run Max Spin Ang} Oxs_Demag::Energy    Oxs_FixedZeeman::Energy Oxs_TimeDriver::Iteration {Oxs_TimeDriver::Stage iteration} Oxs_TimeDriver::Stage Oxs_TimeDriver::mx   Oxs_TimeDriver::my   Oxs_TimeDriver::mz   {Oxs_TimeDriver::Last time step} {Oxs_TimeDriver::Simulation time}
# Units:                        J                                             {}                                         deg/ns                                 J/s                                   J                                 J                              deg                                    deg                                      deg                           J                       J                       {}                            {}                          {}                   {}                   {}                   {}                          s                                 s
                       4.1150227428891047e-18                            1                                            226.71299593264771                   -4.0030573433772819e-11                  0                                9.0375682026290676e-20             2.147067958362912                      2.147067958362912                        2.147067958362912              5.3857323022933248e-19   3.4860738306334817e-18      0                             0                           0                     0.96671597969141987  0.12574904562458797 -5.9031259592751805e-15        0                                0
                       4.1150210654583411e-18                            12                                           226.71524399170616                   -4.0032185749992723e-11                 -1.6774307635563673e-24              9.0376257642226839e-20             2.147073804621261                      2.147073804621261                        2.147073804621261              5.385729366613249e-19   3.4860718711547899e-18      1                             1                           0                     0.96671564907345464  0.12575019213373378 -5.3429271808660248e-05        4.190319995075305e-14              4.190319995075305e-14
                       4.115014352875586e-18                            23                                           226.87322597311754                   -4.0073377033089817e-11                 -6.7125827552175914e-24              9.0379960200737727e-20             2.1471115843527917                     2.1471115843527917                       2.1471115843527917             5.3857599960146552e-19   3.486058393073383e-18      2                             2                           0                     0.96671337350843722  0.12575807003527223 -0.00026707376420183695        1.676127998030122e-13              2.0951599975376525e-13
                       4.1149942236569655e-18                            34                                           228.60652060035525                   -4.0525552311453733e-11                 -2.0129218620387817e-23              9.0404360323510946e-20             2.1473610117149406                     2.1473610117149406                       2.1473610117149406             5.3862525086726789e-19   3.4859646124661869e-18      3                             3                           0                     0.96669753145518278  0.12581283504408936 -0.00090369267734940215        4.9999999999999999e-13              7.0951599975376524e-13
                       4.1149737455513447e-18                            45                                           231.6557805568743                    -4.1468336129852527e-11                 -2.0478105620838051e-23              9.0448980354740464e-20             2.1478145525375343                     2.1478145525375343                       2.1478145525375343             5.3873409853743355e-19   3.485790666659171e-18      4                             4                           0                     0.96666813843658761  0.12591436305711215 -0.0015392513346510817        4.9999999999999999e-13              1.2095159997537651e-12
# Table End
