# ODT 1.0
# Table Start
# Title: mmArchive Data Table, Wed Aug 17 23:55:50 EDT 2011
# Columns: {Oxs_CGEvolve:evolver:Max mxHxm} {Oxs_CGEvolve:evolver:Total energy} {Oxs_CGEvolve:evolver:Delta E} {Oxs_CGEvolve:evolver:Bracket count} {Oxs_CGEvolve:evolver:Line min count} {Oxs_CGEvolve:evolver:Conjugate cycle count} {Oxs_CGEvolve:evolver:Cycle count} {Oxs_CGEvolve:evolver:Cycle sub count} {Oxs_CGEvolve:evolver:Energy calc count} Oxs_UniaxialAnisotropy::Energy Oxs_UniformExchange::Energy {Oxs_UniformExchange::Max Spin Ang} {Oxs_UniformExchange::Stage Max Spin Ang} {Oxs_UniformExchange::Run Max Spin Ang} Oxs_Demag::Energy    Oxs_MinDriver::Iteration {Oxs_MinDriver::Stage iteration} Oxs_MinDriver::Stage Oxs_MinDriver::mx    Oxs_MinDriver::my    Oxs_MinDriver::mz   
# Units:                 A/m                                 J                                J                                 {}                                   {}                                        {}                                      {}                                   {}                                      {}                                  J                             J                              deg                                    deg                                      deg                           J                       {}                           {}                         {}                 {}                   {}                   {}           
                  1402087.9212516488                2.327619012228422e-14               2.327619012228422e-14               0                                    0                                         1                                       1                                    1                                       1                                   4.7927310428659639e-15          8.6119877861684057e-16             91.091529400761218                     91.091529400761218                       91.091529400761218             1.7622260300801415e-14    0                            0                          0                    0.0040945789823924102  0.0041128359827668293  0.64177249206554909
                  1401720.8443269324                2.3275141317744313e-14              -1.0488045399076307e-18               1                                    0                                         1                                       1                                    1                                       2                                   4.7927351386246628e-15          8.6082849056025937e-16             91.035822442711535                     91.091529400761218                       91.091529400761218             1.7621577688559385e-14    1                            1                          0                    0.0040956246340438165  0.0041139261164685938  0.64174137049065105
                  1399114.1507198475                2.3267805588746744e-14              -7.3357289975690233e-18               2                                    0                                         1                                       1                                    1                                       3                                   4.7927643501382875e-15          8.58241434029201e-16             90.64565486905515                      91.091529400761218                       91.091529400761218             1.7616799804579259e-14    2                            2                          0                    0.0041029431736419718  0.0041215555294470295  0.64152337108169155
# Table End
