# ODT 1.0
# Table Start
# Title: mmArchive Data Table, Wed Jun 11 15:42:03 EDT 2014
# Columns: {Oxs_CGEvolve:evolver:Max mxHxm} {Oxs_CGEvolve:evolver:Total energy} {Oxs_CGEvolve:evolver:Delta E} {Oxs_CGEvolve:evolver:Bracket count} {Oxs_CGEvolve:evolver:Line min count} {Oxs_CGEvolve:evolver:Conjugate cycle count} {Oxs_CGEvolve:evolver:Cycle count} {Oxs_CGEvolve:evolver:Cycle sub count} {Oxs_CGEvolve:evolver:Energy calc count} Oxs_UniaxialAnisotropy::Energy Oxs_UniformExchange::Energy {Oxs_UniformExchange::Max Spin Ang} {Oxs_UniformExchange::Stage Max Spin Ang} {Oxs_UniformExchange::Run Max Spin Ang} Oxs_Demag::Energy    Oxs_MinDriver::Iteration {Oxs_MinDriver::Stage iteration} Oxs_MinDriver::Stage Oxs_MinDriver::mx    Oxs_MinDriver::my    Oxs_MinDriver::mz   
# Units:                 A/m                                 J                                J                                 {}                                   {}                                        {}                                      {}                                   {}                                      {}                                  J                             J                              deg                                    deg                                      deg                           J                       {}                           {}                         {}                 {}                   {}                   {}           
                  1402087.9212503256                2.3276190122331255e-14               2.3276190122331255e-14               0                                    0                                         1                                       1                                    0                                       1                                   4.7927310428659639e-15          8.6119877861684057e-16             91.091529400761218                     91.091529400761218                       91.091529400761218             1.762226030084845e-14    0                            0                          0                    0.0040945789823923131  0.0041128359827668319  0.64177249206555498
                  1401720.8443256095                2.3275141317791344e-14              -1.0488045399124532e-18               1                                    0                                         1                                       1                                    0                                       2                                   4.7927351386246628e-15          8.6082849056026095e-16             91.035822442711563                     91.091529400761218                       91.091529400761218             1.762157768860642e-14    1                            1                          0                    0.0040956246340440455  0.0041139261164685808  0.64174137049065372
                  1305120.2213102663                2.3069349458572575e-14              -2.057918592187677e-16               2                                    0                                         1                                       1                                    0                                       3                                   4.7939391278051848e-15          7.9040841710395963e-16             87.744489354729467                     91.091529400761218                       91.091529400761218             1.7485001913663431e-14    2                            2                          0                    0.0043050961272683187  0.0043319571867636783  0.63538073528696004
                  1170505.6602749939                2.2865478780596812e-14              -2.0387067797576401e-16               3                                    0                                         2                                       2                                    0                                       4                                   4.7962052540990001e-15          7.2860710210668386e-16             83.97240048446632                      91.091529400761218                       91.091529400761218             1.7340666424391126e-14    3                            3                          0                    0.0045478452646599103  0.0045827570111062416  0.6284521325673772 
                  1006304.7962032692                2.2657173549990187e-14              -2.0830523060662573e-16               4                                    0                                         3                                       3                                    0                                       5                                   4.7999904900904374e-15          6.7465373511155109e-16             80.185606535607249                     91.091529400761218                       91.091529400761218             1.7182529324788198e-14    4                            4                          0                    0.0048395314975050929  0.0048822850956291271  0.62067424804536908
# Table End
