# ODT 1.0
# Table Start
# Title: mmArchive Data Table, Wed Aug 17 23:55:53 EDT 2011
# Columns: {Oxs_CGEvolve:evolve:Max mxHxm} {Oxs_CGEvolve:evolve:Total energy} {Oxs_CGEvolve:evolve:Delta E} {Oxs_CGEvolve:evolve:Bracket count} {Oxs_CGEvolve:evolve:Line min count} {Oxs_CGEvolve:evolve:Conjugate cycle count} {Oxs_CGEvolve:evolve:Cycle count} {Oxs_CGEvolve:evolve:Cycle sub count} {Oxs_CGEvolve:evolve:Energy calc count} Oxs_Exchange6Ngbr::Energy {Oxs_Exchange6Ngbr::Max Spin Ang} {Oxs_Exchange6Ngbr::Stage Max Spin Ang} {Oxs_Exchange6Ngbr::Run Max Spin Ang} Oxs_Demag::Energy    Oxs_MinDriver::Iteration {Oxs_MinDriver::Stage iteration} Oxs_MinDriver::Stage Oxs_MinDriver::mx    Oxs_MinDriver::my    Oxs_MinDriver::mz   
# Units:                 A/m                               J                                J                               {}                                   {}                                      {}                                     {}                                  {}                                     {}                                J                            deg                                  deg                                    deg                          J                       {}                           {}                         {}                 {}                   {}                   {}           
                 4349622.1907851892                4.5162945635614686e-16             4.5162945635614686e-16              0                                    0                                       1                                      1                                   1                                      1                                1.6331800042389539e-16           25.226514510633223                   25.226514510633223                     25.226514510633223            2.8831145593225149e-16    0                            0                          0                    0.79501417310397449  0.53429804137826031  0.26826347577565107
                 4339795.0565212732                4.5078724645425007e-16            -8.4220990189679075e-19              1                                    0                                       1                                      1                                   1                                      2                                1.6248079315202656e-16           25.15612063044787                    25.226514510633223                     25.226514510633223            2.8830645330222346e-16    1                            1                          0                    0.79503452686136433  0.5343069426865481   0.26827038195746755
                 4270934.8396596881                4.4496145730766e-16            -5.8257891465900648e-18              2                                    0                                       1                                      1                                   1                                      3                                1.5669000375961808e-16           24.663373680475789                   25.226514510633223                     25.226514510633223            2.8827145354804193e-16    2                            2                          0                    0.79517560470239235  0.53436828723752594  0.26831824373629976
# Table End
