# ODT 1.0
# Table Start
# Title: mmArchive Data Table, Wed Jun 11 15:42:14 EDT 2014
# Columns: {Oxs_CGEvolve:evolve:Max mxHxm} {Oxs_CGEvolve:evolve:Total energy} {Oxs_CGEvolve:evolve:Delta E} {Oxs_CGEvolve:evolve:Bracket count} {Oxs_CGEvolve:evolve:Line min count} {Oxs_CGEvolve:evolve:Conjugate cycle count} {Oxs_CGEvolve:evolve:Cycle count} {Oxs_CGEvolve:evolve:Cycle sub count} {Oxs_CGEvolve:evolve:Energy calc count} Oxs_Exchange6Ngbr::Energy {Oxs_Exchange6Ngbr::Max Spin Ang} {Oxs_Exchange6Ngbr::Stage Max Spin Ang} {Oxs_Exchange6Ngbr::Run Max Spin Ang} Oxs_Demag::Energy    Oxs_MinDriver::Iteration {Oxs_MinDriver::Stage iteration} Oxs_MinDriver::Stage Oxs_MinDriver::mx    Oxs_MinDriver::my    Oxs_MinDriver::mz   
# Units:                 A/m                               J                                J                               {}                                   {}                                      {}                                     {}                                  {}                                     {}                                J                            deg                                  deg                                    deg                          J                       {}                           {}                         {}                 {}                   {}                   {}           
                 4349622.1907857843                4.5162945635670991e-16             4.5162945635670991e-16              0                                    0                                       1                                      1                                   0                                      1                                1.6331800042389542e-16           25.226514510633226                   25.226514510633226                     25.226514510633226            2.8831145593281444e-16    0                            0                          0                    0.79501417310397471  0.53429804137826065  0.26826347577565474
                 4339795.0565218693                4.5078724645481351e-16            -8.4220990189631698e-19              1                                    0                                       1                                      1                                   0                                      2                                1.6248079315202698e-16           25.156120630447901                   25.226514510633226                     25.226514510633226            2.8830645330278656e-16    1                            1                          0                    0.79503452686135956  0.53430694268654289  0.26827038195746633
                 2470399.8715106584                3.3247904559354028e-16            -1.1830820086127326e-16              2                                    0                                       1                                      1                                   0                                      3                                4.5162287757259465e-17           17.878701797029485                   25.226514510633226                     25.226514510633226            2.8731675783628085e-16    2                            2                          0                    0.79810263193302422  0.53539947589600367  0.26930913829480352
                 1398769.7393432264                3.0080785290259757e-16            -3.1671192690942722e-17              3                                    0                                       2                                      2                                   0                                      4                                1.4673312082302059e-17           13.218812866171362                   25.226514510633226                     25.226514510633226            2.8613454082029553e-16    3                            3                          0                    0.79947300232467167  0.53508292965365689  0.26977165361760325
                 1198100.0680560966                2.9388516420281189e-16            -6.9226886997856691e-18              4                                    0                                       2                                      2                                   0                                      5                                9.1821328761825069e-18           8.6151993438124883                   25.226514510633226                     25.226514510633226            2.8470303132662937e-16    4                            4                          0                    0.80036993883011398  0.53414947287321857  0.2700760178279708 
# Table End
