# ODT 1.0
# Table Start
# Title: mmArchive Data Table, Wed Jun 11 15:42:09 EDT 2014
# Columns: {Oxs_CGEvolve:evolve:Max mxHxm} {Oxs_CGEvolve:evolve:Total energy} {Oxs_CGEvolve:evolve:Delta E} {Oxs_CGEvolve:evolve:Bracket count} {Oxs_CGEvolve:evolve:Line min count} {Oxs_CGEvolve:evolve:Conjugate cycle count} {Oxs_CGEvolve:evolve:Cycle count} {Oxs_CGEvolve:evolve:Cycle sub count} {Oxs_CGEvolve:evolve:Energy calc count} Oxs_Exchange6Ngbr::Energy {Oxs_Exchange6Ngbr::Max Spin Ang} {Oxs_Exchange6Ngbr::Stage Max Spin Ang} {Oxs_Exchange6Ngbr::Run Max Spin Ang} Oxs_Demag::Energy    Oxs_MinDriver::Iteration {Oxs_MinDriver::Stage iteration} Oxs_MinDriver::Stage Oxs_MinDriver::mx    Oxs_MinDriver::my    Oxs_MinDriver::mz   
# Units:                 A/m                               J                                J                               {}                                   {}                                      {}                                     {}                                  {}                                     {}                                J                            deg                                  deg                                    deg                          J                       {}                           {}                         {}                 {}                   {}                   {}           
                 4352658.5847325418                3.5743399156605164e-16             3.5743399156605164e-16              0                                    0                                       1                                      1                                   0                                      1                                1.2728815641998412e-16           25.226514510633226                   25.226514510633226                     25.226514510633226            2.3014583514606752e-16    0                            0                          0                    0.79481598173431611  0.53455878296891057  0.26835657809257751
                 4342467.1039332505                3.5675544192534933e-16            -6.7854964070231805e-19              1                                    0                                       1                                      1                                   0                                      2                                1.2661260054492184e-16           25.15340448561496                    25.226514510633226                     25.226514510633226            2.3014284138042751e-16    1                            1                          0                    0.79483742786140044  0.53456667221044762  0.26836477198149905
                 2397039.4673720635                2.6304619123489573e-16            -9.3709250690453623e-17              2                                    0                                       1                                      1                                   0                                      3                                3.3506005229395432e-17           17.686923793928383                   25.226514510633226                     25.226514510633226            2.295401860055003e-16    2                            2                          0                    0.79805918633167938  0.5354108547916997   0.26963965183283128
                 1320113.1740755816                2.395601957319762e-16            -2.348599550291952e-17              3                                    0                                       2                                      2                                   0                                      4                                1.0750335780267942e-17           14.682487816231234                   25.226514510633226                     25.226514510633226            2.2880985995170824e-16    3                            3                          0                    0.79955306856962716  0.53473037436461679  0.27037745628549442
                 1269625.7224741708                2.3560770107893025e-16            -3.952494653045952e-18              4                                    0                                       2                                      2                                   0                                      5                                7.7348928079442375e-18           11.231296190884173                   25.226514510633226                     25.226514510633226            2.2787280827098599e-16    4                            4                          0                    0.80065669862457256  0.5332604299274023   0.27105942402992389
# Table End
