# ODT 1.0
# Table Start
# Title: mmArchive Data Table, Wed Aug 17 23:55:53 EDT 2011
# Columns: {Oxs_CGEvolve:evolve:Max mxHxm} {Oxs_CGEvolve:evolve:Total energy} {Oxs_CGEvolve:evolve:Delta E} {Oxs_CGEvolve:evolve:Bracket count} {Oxs_CGEvolve:evolve:Line min count} {Oxs_CGEvolve:evolve:Conjugate cycle count} {Oxs_CGEvolve:evolve:Cycle count} {Oxs_CGEvolve:evolve:Cycle sub count} {Oxs_CGEvolve:evolve:Energy calc count} Oxs_Exchange6Ngbr::Energy {Oxs_Exchange6Ngbr::Max Spin Ang} {Oxs_Exchange6Ngbr::Stage Max Spin Ang} {Oxs_Exchange6Ngbr::Run Max Spin Ang} Oxs_Demag::Energy    Oxs_MinDriver::Iteration {Oxs_MinDriver::Stage iteration} Oxs_MinDriver::Stage Oxs_MinDriver::mx    Oxs_MinDriver::my    Oxs_MinDriver::mz   
# Units:                 A/m                               J                                J                               {}                                   {}                                      {}                                     {}                                  {}                                     {}                                J                            deg                                  deg                                    deg                          J                       {}                           {}                         {}                 {}                   {}                   {}           
                 4375822.6536112381                2.6528824384745828e-16             2.6528824384745828e-16              0                                    0                                       1                                      1                                   1                                      1                                8.9990497561410522e-17           24.051596648932637                   24.051596648932637                     24.051596648932637            1.7529774628604773e-16    0                            0                          0                    0.79499236612620472  0.53433798483705741  0.26827581608977186
                 4366015.7139234282                2.6478264380818022e-16            -5.0560003927806069e-19              1                                    0                                       1                                      1                                   1                                      2                                8.9490766474746039e-17           24.006672190352489                   24.051596648932637                     24.051596648932637            1.7529187733343416e-16    1                            1                          0                    0.79500838935518003  0.53435156127451333  0.26829176367335106
                 4297297.4440148752                2.6128764654524582e-16            -3.4949972629344011e-18              2                                    0                                       1                                      1                                   1                                      3                                8.6036790980189775e-17           23.692204959095996                   24.051596648932637                     24.051596648932637            1.7525085556505602e-16    2                            2                          0                    0.7951189767461404   0.53444551977089549  0.26840285905545874
# Table End
