# ODT 1.0
# Table Start
# Title: mmArchive Data Table, Wed Jun 11 15:42:06 EDT 2014
# Columns: {Oxs_CGEvolve:evolve:Max mxHxm} {Oxs_CGEvolve:evolve:Total energy} {Oxs_CGEvolve:evolve:Delta E} {Oxs_CGEvolve:evolve:Bracket count} {Oxs_CGEvolve:evolve:Line min count} {Oxs_CGEvolve:evolve:Conjugate cycle count} {Oxs_CGEvolve:evolve:Cycle count} {Oxs_CGEvolve:evolve:Cycle sub count} {Oxs_CGEvolve:evolve:Energy calc count} Oxs_Exchange6Ngbr::Energy {Oxs_Exchange6Ngbr::Max Spin Ang} {Oxs_Exchange6Ngbr::Stage Max Spin Ang} {Oxs_Exchange6Ngbr::Run Max Spin Ang} Oxs_Demag::Energy    Oxs_MinDriver::Iteration {Oxs_MinDriver::Stage iteration} Oxs_MinDriver::Stage Oxs_MinDriver::mx    Oxs_MinDriver::my    Oxs_MinDriver::mz   
# Units:                 A/m                               J                                J                               {}                                   {}                                      {}                                     {}                                  {}                                     {}                                J                            deg                                  deg                                    deg                          J                       {}                           {}                         {}                 {}                   {}                   {}           
                 4317420.6591480169                2.3367841937696197e-16             2.3367841937696197e-16              0                                    0                                       1                                      1                                   0                                      1                                8.4359691693355777e-17           25.226514510633226                   25.226514510633226                     25.226514510633226            1.4931872768360618e-16    0                            0                          0                    0.79480990984151401  0.53461782667277091  0.26823530877261098
                 4307301.5815111389                2.3321292258712931e-16            -4.654967898326476e-19              1                                    0                                       1                                      1                                   0                                      2                                8.3895524165083654e-17           25.151021196796066                   25.226514510633226                     25.226514510633226            1.4931739842204565e-16    1                            1                          0                    0.79483232794945813  0.53462620137321881  0.26824261636512398
                 2313480.2757916721                1.700914122486141e-16            -6.3121510338515205e-17              2                                    0                                       1                                      1                                   0                                      3                                2.1029428943330522e-17           17.795758552809925                   25.226514510633226                     25.226514510633226            1.490619833052836e-16    2                            2                          0                    0.79817349271920501  0.53551695585038683  0.2693140898321072 
                 1228048.8209366952                1.5541883184487587e-16            -1.4672580403738235e-17              3                                    0                                       2                                      2                                   0                                      4                                6.6312450308547391e-18           15.737973862892991                   25.226514510633226                     25.226514510633226            1.4878758681402114e-16    3                            3                          0                    0.79973915933554451  0.53483948854813179  0.26976520814881999
                 1208165.4958723704                1.5311791079547227e-16            -2.3009210494036136e-18              4                                    0                                       2                                      2                                   0                                      5                                4.6486273976293413e-18           13.199052293053057                   25.226514510633226                     25.226514510633226            1.4846928339784291e-16    4                            4                          0                    0.80091678493920782  0.53348948095043847  0.27006864849288231
# Table End
