# ODT 1.0
# Table Start
# Title: mmArchive Data Table, Wed Aug 17 23:55:51 EDT 2011
# Columns: {Oxs_CGEvolve:evolve:Max mxHxm} {Oxs_CGEvolve:evolve:Total energy} {Oxs_CGEvolve:evolve:Delta E} {Oxs_CGEvolve:evolve:Bracket count} {Oxs_CGEvolve:evolve:Line min count} {Oxs_CGEvolve:evolve:Conjugate cycle count} {Oxs_CGEvolve:evolve:Cycle count} {Oxs_CGEvolve:evolve:Cycle sub count} {Oxs_CGEvolve:evolve:Energy calc count} Oxs_Exchange6Ngbr::Energy {Oxs_Exchange6Ngbr::Max Spin Ang} {Oxs_Exchange6Ngbr::Stage Max Spin Ang} {Oxs_Exchange6Ngbr::Run Max Spin Ang} Oxs_Demag::Energy    Oxs_MinDriver::Iteration {Oxs_MinDriver::Stage iteration} Oxs_MinDriver::Stage Oxs_MinDriver::mx    Oxs_MinDriver::my    Oxs_MinDriver::mz   
# Units:                 A/m                               J                                J                               {}                                   {}                                      {}                                     {}                                  {}                                     {}                                J                            deg                                  deg                                    deg                          J                       {}                           {}                         {}                 {}                   {}                   {}           
                 4317420.6591533227                2.3367841937647347e-16             2.3367841937647347e-16              0                                    0                                       1                                      1                                   1                                      1                                8.4359691693355764e-17           25.226514510633223                   25.226514510633223                     25.226514510633223            1.4931872768311773e-16    0                            0                          0                    0.79480990984151578  0.5346178266727708   0.26823530877261093
                 4307301.5815164307                2.3321292258664066e-16            -4.6549678983280957e-19              1                                    0                                       1                                      1                                   1                                      2                                8.3895524165083506e-17           25.151021196796012                   25.226514510633223                     25.226514510633223            1.4931739842155717e-16    1                            1                          0                    0.79483232794946357  0.53462620137321559  0.26824261636512609
                 4236386.4696550639                2.299960479937445e-16            -3.2168745928961534e-18              2                                    0                                       1                                      1                                   1                                      3                                8.068793854541627e-17           24.622580211073217                   25.226514510633223                     25.226514510633223            1.4930810944832824e-16    2                            2                          0                    0.79498766332982351  0.53468372588973045  0.26829322140251571
# Table End
