# ODT 1.0
# Table Start
# Title: mmArchive Data Table, Wed Aug 17 23:55:54 EDT 2011
# Columns: {Oxs_CGEvolve:evolve:Max mxHxm} {Oxs_CGEvolve:evolve:Total energy} {Oxs_CGEvolve:evolve:Delta E} {Oxs_CGEvolve:evolve:Bracket count} {Oxs_CGEvolve:evolve:Line min count} {Oxs_CGEvolve:evolve:Conjugate cycle count} {Oxs_CGEvolve:evolve:Cycle count} {Oxs_CGEvolve:evolve:Cycle sub count} {Oxs_CGEvolve:evolve:Energy calc count} Oxs_Exchange6Ngbr::Energy {Oxs_Exchange6Ngbr::Max Spin Ang} {Oxs_Exchange6Ngbr::Stage Max Spin Ang} {Oxs_Exchange6Ngbr::Run Max Spin Ang} Oxs_Demag::Energy    Oxs_MinDriver::Iteration {Oxs_MinDriver::Stage iteration} Oxs_MinDriver::Stage Oxs_MinDriver::mx    Oxs_MinDriver::my    Oxs_MinDriver::mz   
# Units:                 A/m                               J                                J                               {}                                   {}                                      {}                                     {}                                  {}                                     {}                                J                            deg                                  deg                                    deg                          J                       {}                           {}                         {}                 {}                   {}                   {}           
                 3296261.170760945                 3.3458286042049425e-16             3.3458286042049425e-16              0                                    0                                       1                                      1                                   1                                      1                                6.6680644391133513e-17           25.226514510633223                   25.226514510633223                     25.226514510633223            2.679022160293607e-16    0                            0                          0                    0.7950559938031887   0.5343124675998342   0.26807574448690719
                 3284634.4565568976                3.3430193264200115e-16            -2.8092777849310095e-19              1                                    0                                       1                                      1                                   1                                      2                                6.6405918131942702e-17           25.185333860182851                   25.226514510633223                     25.226514510633223            2.6789601451005851e-16    1                            1                          0                    0.79506965964086718  0.53431602585034577  0.26808076940563874
                 3203113.2766827052                3.3235548520477263e-16            -1.9464474372285241e-18              2                                    0                                       1                                      1                                   1                                      3                                6.4502858894622896e-17           24.89707166589557                    25.226514510633223                     25.226514510633223            2.6785262631014978e-16    2                            2                          0                    0.79516462570901414  0.53434045333063662  0.26811570455159661
# Table End
