# ODT 1.0
# Table Start
# Title: mmArchive Data Table, Wed Jun 11 15:42:18 EDT 2014
# Columns: {Oxs_CGEvolve:evolve:Max mxHxm} {Oxs_CGEvolve:evolve:Total energy} {Oxs_CGEvolve:evolve:Delta E} {Oxs_CGEvolve:evolve:Bracket count} {Oxs_CGEvolve:evolve:Line min count} {Oxs_CGEvolve:evolve:Conjugate cycle count} {Oxs_CGEvolve:evolve:Cycle count} {Oxs_CGEvolve:evolve:Cycle sub count} {Oxs_CGEvolve:evolve:Energy calc count} Oxs_Exchange6Ngbr::Energy {Oxs_Exchange6Ngbr::Max Spin Ang} {Oxs_Exchange6Ngbr::Stage Max Spin Ang} {Oxs_Exchange6Ngbr::Run Max Spin Ang} Oxs_Demag::Energy    Oxs_MinDriver::Iteration {Oxs_MinDriver::Stage iteration} Oxs_MinDriver::Stage Oxs_MinDriver::mx    Oxs_MinDriver::my    Oxs_MinDriver::mz   
# Units:                 A/m                               J                                J                               {}                                   {}                                      {}                                     {}                                  {}                                     {}                                J                            deg                                  deg                                    deg                          J                       {}                           {}                         {}                 {}                   {}                   {}           
                 3296261.1707618609                3.3458286042112963e-16             3.3458286042112963e-16              0                                    0                                       1                                      1                                   0                                      1                                6.6680644391133525e-17           25.226514510633226                   25.226514510633226                     25.226514510633226            2.6790221602999608e-16    0                            0                          0                    0.79505599380318792  0.53431246759983264  0.26807574448691002
                 3284634.4565578182                3.3430193264263668e-16            -2.809277784929334e-19              1                                    0                                       1                                      1                                   0                                      2                                6.6405918131942788e-17           25.185333860183007                   25.226514510633226                     25.226514510633226            2.6789601451069389e-16    1                            1                          0                    0.79506965964086951  0.53431602585035021  0.2680807694056378 
                 1885512.5319157592                2.9248425864634229e-16            -4.1817673996294412e-17              2                                    0                                       1                                      1                                   0                                      3                                2.5816517311674436e-17           21.71932841255348                    25.226514510633226                     25.226514510633226            2.6666774133466786e-16    2                            2                          0                    0.79730848301813184  0.53468490552805636  0.26891753268153595
                 1220637.31282841                  2.7757721535442443e-16            -1.4907043291917844e-17              3                                    0                                       2                                      2                                   0                                      4                                1.2240365153477504e-17           19.914476264186305                   25.226514510633226                     25.226514510633226            2.6533685020094695e-16    3                            3                          0                    0.79870870171300801  0.53419851777723026  0.26948744472192737
                 893386.7409858451                 2.7150106031927122e-16            -6.0761550351532155e-18              4                                    0                                       2                                      2                                   0                                      5                                7.7245152147153548e-18           18.714310449887531                   25.226514510633226                     25.226514510633226            2.6377654510455587e-16    4                            4                          0                    0.79982851025391244  0.53325983589936743  0.26998160680528838
# Table End
