# ODT 1.0
# Table Start
# Title: mmArchive Data Table, Wed Aug 17 23:55:52 EDT 2011
# Columns: {Oxs_CGEvolve:evolve:Max mxHxm} {Oxs_CGEvolve:evolve:Total energy} {Oxs_CGEvolve:evolve:Delta E} {Oxs_CGEvolve:evolve:Bracket count} {Oxs_CGEvolve:evolve:Line min count} {Oxs_CGEvolve:evolve:Conjugate cycle count} {Oxs_CGEvolve:evolve:Cycle count} {Oxs_CGEvolve:evolve:Cycle sub count} {Oxs_CGEvolve:evolve:Energy calc count} Oxs_Exchange6Ngbr::Energy {Oxs_Exchange6Ngbr::Max Spin Ang} {Oxs_Exchange6Ngbr::Stage Max Spin Ang} {Oxs_Exchange6Ngbr::Run Max Spin Ang} Oxs_Demag::Energy    Oxs_MinDriver::Iteration {Oxs_MinDriver::Stage iteration} Oxs_MinDriver::Stage Oxs_MinDriver::mx    Oxs_MinDriver::my    Oxs_MinDriver::mz   
# Units:                 A/m                               J                                J                               {}                                   {}                                      {}                                     {}                                  {}                                     {}                                J                            deg                                  deg                                    deg                          J                       {}                           {}                         {}                 {}                   {}                   {}           
                 4352658.5847319625                3.5743399156561121e-16             3.5743399156561121e-16              0                                    0                                       1                                      1                                   1                                      1                                1.2728815641998412e-16           25.226514510633223                   25.226514510633223                     25.226514510633223            2.3014583514562709e-16    0                            0                          0                    0.79481598173432033  0.53455878296891124  0.26835657809257668
                 4342467.1039326768                3.5675544192490909e-16            -6.7854964070211659e-19              1                                    0                                       1                                      1                                   1                                      2                                1.2661260054492204e-16           25.153404485614981                   25.226514510633223                     25.226514510633223            2.3014284137998703e-16    1                            1                          0                    0.79483742786140044  0.53456667221044918  0.26836477198149966
                 4271050.7500204593                3.5206392533704578e-16            -4.6915165878633142e-18              2                                    0                                       1                                      1                                   1                                      3                                1.2194204309964926e-16           24.641645378327478                   25.226514510633223                     25.226514510633223            2.3012188223739652e-16    2                            2                          0                    0.7949860629976212   0.53462086884142301  0.26842161681126375
# Table End
