# ODT 1.0
# Table Start
# Title: mmArchive Data Table, Wed Jun 11 15:42:12 EDT 2014
# Columns: {Oxs_CGEvolve:evolve:Max mxHxm} {Oxs_CGEvolve:evolve:Total energy} {Oxs_CGEvolve:evolve:Delta E} {Oxs_CGEvolve:evolve:Bracket count} {Oxs_CGEvolve:evolve:Line min count} {Oxs_CGEvolve:evolve:Conjugate cycle count} {Oxs_CGEvolve:evolve:Cycle count} {Oxs_CGEvolve:evolve:Cycle sub count} {Oxs_CGEvolve:evolve:Energy calc count} Oxs_Exchange6Ngbr::Energy {Oxs_Exchange6Ngbr::Max Spin Ang} {Oxs_Exchange6Ngbr::Stage Max Spin Ang} {Oxs_Exchange6Ngbr::Run Max Spin Ang} Oxs_Demag::Energy    Oxs_MinDriver::Iteration {Oxs_MinDriver::Stage iteration} Oxs_MinDriver::Stage Oxs_MinDriver::mx    Oxs_MinDriver::my    Oxs_MinDriver::mz   
# Units:                 A/m                               J                                J                               {}                                   {}                                      {}                                     {}                                  {}                                     {}                                J                            deg                                  deg                                    deg                          J                       {}                           {}                         {}                 {}                   {}                   {}           
                 4375822.6536108842                2.6528824384724844e-16             2.6528824384724844e-16              0                                    0                                       1                                      1                                   0                                      1                                8.9990497561410534e-17           24.051596648932641                   24.051596648932641                     24.051596648932641            1.752977462858379e-16    0                            0                          0                    0.79499236612620228  0.53433798483705308  0.26827581608977336
                 4366015.7139230752                2.6478264380797048e-16            -5.0560003927795419e-19              1                                    0                                       1                                      1                                   0                                      2                                8.9490766474746162e-17           24.006672190352543                   24.051596648932641                     24.051596648932641            1.7529187733322432e-16    1                            1                          0                    0.7950083893551797   0.53435156127451444  0.26829176367335383
                 2415921.6685908819                1.955045366420243e-16            -6.9278107165946184e-17              2                                    0                                       1                                      1                                   0                                      3                                2.1344724173033281e-17           16.555380858768668                   24.051596648932641                     24.051596648932641            1.7415981246899102e-16    2                            2                          0                    0.79708008540050779  0.53629957005875362  0.27110375925398711
                 1282191.5117283971                1.7928469373328078e-16            -1.6219842908743516e-17              3                                    0                                       2                                      2                                   0                                      4                                6.4138033991094584e-18           12.0860086662752                     24.051596648932641                     24.051596648932641            1.7287089033417131e-16    3                            3                          0                    0.79697386862879871  0.5369183916103808   0.27373060990282444
                 1175821.6851151418                1.7667723750519127e-16            -2.6074562280895081e-18              4                                    0                                       2                                      2                                   0                                      5                                5.3845963571115635e-18           8.4568512954494501                   24.051596648932641                     24.051596648932641            1.712926411480797e-16    4                            4                          0                    0.79597788175723516  0.53712591690763423  0.27677585576731878
# Table End
