# ODT 1.0
# Table Start
# Title: mmArchive Data Table, Wed Jun 16 18:46:21 EDT 2010
# Columns: {Oxs_RungeKuttaEvolve:evolve:Total energy} {Oxs_RungeKuttaEvolve:evolve:Energy calc count} {Oxs_RungeKuttaEvolve:evolve:Max dm/dt} Oxs_RungeKuttaEvolve:evolve:dE/dt {Oxs_RungeKuttaEvolve:evolve:Delta E} Oxs_CubicAnisotropy::Energy Oxs_UniformExchange::Energy {Oxs_UniformExchange::Max Spin Ang} {Oxs_UniformExchange::Stage Max Spin Ang} {Oxs_UniformExchange::Run Max Spin Ang} Oxs_TransformZeeman::Energy Oxs_Demag::Energy    Oxs_TimeDriver::Iteration {Oxs_TimeDriver::Stage iteration} Oxs_TimeDriver::Stage Oxs_TimeDriver::mx   Oxs_TimeDriver::my   Oxs_TimeDriver::mz   {Oxs_TimeDriver::Last time step} {Oxs_TimeDriver::Simulation time}
# Units:                       J                                            {}                                        deg/ns                                 J/s                                  J                                J                           J                              deg                                    deg                                      deg                                J                      J                       {}                            {}                          {}                   {}                   {}                   {}                          s                                 s                
                       1.5291003417390917e-18                          1                                           1764.5455219399928                  -4.9586142177175728e-09                 0                               -2.1849894243283158e-22         0                               0                                      0                                        0                                 0                        1.5293188406815247e-18    0                             0                           0                     0.99975009371095458  0.019995001874219091  0.0099975009371095457        0                                0                         
                       1.5290736933045605e-18                          7                                           1764.2145969762919                  -4.9408453927940878e-09                -2.6648434531241774e-23             -2.1836109340767945e-22         1.093321501015312e-25             0.012779347165798708                    0.012779347165798708                      0.012779347165798708              -8.4287623589531837e-32      1.5292919450659024e-18    1                             1                           0                     0.99975025146135699  0.019988450729104986  0.0099947957163060222        5.3838225661389695e-15              5.3838225661389695e-15       
                       1.5289680503756324e-18                          13                                          1762.8043010892345                  -4.8704916866330693e-09                -1.0564292892807595e-22             -2.1781568970387169e-22         2.7052949418964836e-24             0.06355712054538834                    0.06355712054538834                      0.06355712054538834              -1.0552478024840906e-29      1.5291831607809469e-18    2                             2                           0                     0.99975087559443254  0.019962264529120193  0.0099839813326086969        2.1535290264555878e-14              2.6919112830694848e-14       
                       1.5289680503756324e-18                          14                                          1762.8043010892345                  -4.8704916866330693e-09                 0                               -2.1781568970387169e-22         2.7052949418964836e-24             0.06355712054538834                    0.06355712054538834                      0.06355712054538834              -1.0552478024840906e-29      1.5291831607809469e-18    3                             0                           1                     0.99975087559443254  0.019962264529120193  0.0099839813326086969        0                                2.6919112830694848e-14       
                       1.5285602613888383e-18                          20                                          1755.8298299994974                  -4.6004312729291463e-09                -4.0778898679413122e-22             -2.1572657149050616e-22         4.5768056138098883e-23             0.26119898360315924                    0.26119898360315924                      0.26119898360315924              -7.867016302909158e-28      1.5287302206908923e-18    4                             1                           1                     0.99975326611151305  0.0198578134481214   0.0099408274410417545        8.6141161058223512e-14              1.1306027388891836e-13       
                       1.5271394718721871e-18                          26                                          1709.6673813096302                  -3.6897787978605251e-09                -1.4207895166511489e-21             -2.0864483016967509e-22         6.2887538012113395e-22             0.96323283590741693                    0.96323283590741693                      0.96323283590741693              -5.3457572088038851e-26      1.5267192947798077e-18    5                             2                           1                     0.99976136740192267  0.019444684770031282  0.0097698484938706         3.4456464423289405e-13              4.576249181218124e-13       
                       1.5271394718721871e-18                          27                                          1709.6673813096302                  -3.6897787978605251e-09                 0                               -2.0864483016967509e-22         6.2887538012113395e-22             0.96323283590741693                    0.96323283590741693                      0.96323283590741693              -5.3457572088038851e-26      1.5267192947798077e-18    6                             0                           2                     0.99976136740192267  0.019444684770031282  0.0097698484938706         0                                4.576249181218124e-13       
                       1.5245616740415543e-18                          33                                          1515.995402856699                   -2.3225134992970635e-09                -2.5777978306328295e-21             -1.9628567675664167e-22         3.2845630046053614e-21             2.1544352834890361                     2.1544352834890361                       2.1544352834890361               -1.4350639431750545e-24      1.5214748317776488e-18    7                             1                           2                     0.99977549666272669  0.018416347005212975  0.0093418681903763272        8.8587092370452002e-13              1.3434958418263324e-12       
                       1.5225532525171036e-18                          39                                          1255.9729749458229                  -1.7091108789618994e-09                -2.0084215244506459e-21             -1.8641425547776081e-22         5.4459517472570581e-21             2.6958443457172212                     2.6958443457172212                       2.6958443457172212               -8.3321685250592107e-24      1.5173020471938494e-18    8                             2                           2                     0.99978676819010703  0.017289290027428916  0.0088680861536864324        1.0214781037570407e-12              2.3649739455833729e-12       
                       1.5225532525171036e-18                          40                                          1255.9729749458229                  -1.7091108789618994e-09                 0                               -1.8641425547776081e-22         5.4459517472570581e-21             2.6958443457172212                     2.6958443457172212                       2.6958443457172212               -8.3321685250592107e-24      1.5173020471938494e-18    9                             0                           3                     0.99978676819010703  0.017289290027428916  0.0088680861536864324        0                                2.3649739455833729e-12       
                       1.5206958372321444e-18                          46                                          981.17435743801479                  -1.4157594791473172e-09                -1.8574152849592987e-21             -1.7820129520153899e-22         5.9048304659367341e-21             2.7166520857056353                     2.7166520857056353                       2.7166520857056353               -3.0584560786390217e-23      1.5149997926221955e-18    10                            1                           3                     0.99979611338288887  0.016039153585367696  0.0083357591657910388        1.2029360627485608e-12              3.5679100083319337e-12       
                       1.5187692028272195e-18                          52                                          793.43054462586554                  -1.2687606571594913e-09                -1.926634404924984e-21             -1.7588021316970258e-22         5.2153460464024158e-21             2.4364104653456842                     2.7166520857056353                       2.7166520857056353               -9.1474973137691886e-23      1.5138212119671243e-18    11                            2                           3                     0.99979865083683384  0.014636820778002838  0.0077287819972830735        1.4504694859801888e-12              5.0183794943121227e-12       
                       1.5187692028272195e-18                          53                                          793.43054462586554                  -1.2687606571594913e-09                 0                               -1.7588021316970258e-22         5.2153460464024158e-21             2.4364104653456842                     2.4364104653456842                       2.7166520857056353               -9.1474973137691886e-23      1.5138212119671243e-18    12                            0                           4                     0.99979865083683384  0.014636820778002838  0.0077287819972830735        0                                5.0183794943121227e-12       
                       1.5176155829965355e-18                          65                                          785.98655891722467                  -1.2461271053413147e-09                -1.1536198306839467e-21             -1.8022356132379234e-22         4.8901325444568675e-21             2.2782729287650452                     2.4364104653456842                       2.7166520857056353               -1.580212733450483e-22      1.5130636952867474e-18    13                            1                           4                     0.99979356017956456  0.013803936798859582  0.007362629988126845        9.1981643993410333e-13              5.9381959342462265e-12       
                       1.5165328758366204e-18                          71                                          758.83596721143431                  -1.2507018752600447e-09                -1.0827071599150994e-21             -1.8886001155432565e-22         4.8639309758924212e-21             2.2007644949886664                     2.4364104653456842                       2.7166520857056353               -2.469263188543864e-22      1.5121047311911367e-18    14                            2                           4                     0.99978351799140741  0.013055957105614819  0.007029708863326746        8.6831792246782061e-13              6.8065138567140466e-12       
                       1.5165328758366204e-18                          72                                          758.83596721143431                  -1.2507018752600447e-09                 0                               -1.8886001155432565e-22         4.8639309758924212e-21             2.2007644949886664                     2.2007644949886664                       2.7166520857056353               -2.469263188543864e-22      1.5121047311911367e-18    15                            0                           5                     0.99978351799140741  0.013055957105614819  0.007029708863326746        0                                6.8065138567140466e-12       
                       1.5153505515548304e-18                          78                                          727.95140751194231                  -1.2716087732328994e-09                -1.1823242817899336e-21             -2.0308359031016388e-22         5.1068565288665051e-21             2.188994627359198                      2.2007644949886664                       2.7166520857056353               -3.7766652894797916e-22      1.510824445145222e-18    16                            1                           5                     0.99976700588450917  0.012287771917490675  0.0066832748057279734        9.3836248800954555e-13              7.7448763447235921e-12       
                       1.513993474163814e-18                          84                                          696.72900755276714                  -1.3105102506479617e-09                -1.3570773910164679e-21             -2.2480684738567647e-22         5.5633976393245727e-21             2.2207791493093754                     2.2207791493093754                       2.7166520857056353               -5.7564337334853172e-22      1.5092305267452235e-18    17                            2                           5                     0.9997417863462863   0.011473875816060301  0.0063105976759310631        1.0522590192493116e-12              8.7971353639729033e-12       
                       1.513993474163814e-18                          85                                          696.72900755276714                  -1.3105102506479617e-09                 0                               -2.2480684738567647e-22         5.5633976393245727e-21             2.2207791493093754                     2.2207791493093754                       2.7166520857056353               -5.7564337334853172e-22      1.5092305267452235e-18    18                            0                           6                     0.9997417863462863   0.011473875816060301  0.0063105976759310631        0                                8.7971353639729033e-12       
                       1.5125620580633683e-18                          91                                          695.52895378885455                  -1.3657661566190248e-09                -1.4314161004455754e-21             -2.5295406364279405e-22         6.0692447981670145e-21             2.2562710104476746                     2.2562710104476746                       2.7166520857056353               -8.4342407063679879e-22      1.507589191399481e-18    19                            1                           6                     0.99970908158671945  0.010694816856155321  0.0059477228417349317        1.0709710424577725e-12              9.8681064064306761e-12       
                       1.5114195661410223e-18                          103                                         690.57981731459404                  -1.4169644378796678e-09                -1.1424919223461545e-21             -2.7866682639274408e-22         6.4320258529833122e-21             2.2714966334305666                     2.2714966334305666                       2.7166520857056353               -1.1014530030982691e-21      1.5063676601175298e-18    20                            2                           6                     0.99967917335104695  0.010129435340612511  0.0056801343647380608        8.2159839424941003e-13              1.0689704800680086e-11       
# Table End
