# ODT 1.0
# Table Start
# Title: mmArchive Data Table, Wed Jun 11 15:42:19 EDT 2014
# Columns: {Oxs_RungeKuttaEvolve:evolve:Total energy} {Oxs_RungeKuttaEvolve:evolve:Energy calc count} {Oxs_RungeKuttaEvolve:evolve:Max dm/dt} Oxs_RungeKuttaEvolve:evolve:dE/dt {Oxs_RungeKuttaEvolve:evolve:Delta E} Oxs_CubicAnisotropy::Energy Oxs_UniformExchange::Energy {Oxs_UniformExchange::Max Spin Ang} {Oxs_UniformExchange::Stage Max Spin Ang} {Oxs_UniformExchange::Run Max Spin Ang} Oxs_TransformZeeman::Energy Oxs_Demag::Energy    Oxs_TimeDriver::Iteration {Oxs_TimeDriver::Stage iteration} Oxs_TimeDriver::Stage Oxs_TimeDriver::mx   Oxs_TimeDriver::my   Oxs_TimeDriver::mz   {Oxs_TimeDriver::Last time step} {Oxs_TimeDriver::Simulation time}
# Units:                       J                                            {}                                        deg/ns                                 J/s                                  J                                J                           J                              deg                                    deg                                      deg                                J                      J                       {}                            {}                          {}                   {}                   {}                   {}                          s                                 s                
                       1.5291003417393355e-18                          1                                           1764.5455219400128                  -4.9586142177177002e-09                 0                               -2.1849894243283158e-22         0                               0                                      0                                        0                                 0                        1.5293188406817683e-18    0                             0                           0                     0.99975009371095458  0.019995001874219091  0.0099975009371095457        0                                0                         
                       1.5290736933048043e-18                          7                                           1764.2145969763117                  -4.9408453927942143e-09                -2.664843453124215e-23             -2.1836109340767945e-22         1.0933215010153705e-25             0.012779347165790675                    0.012779347165790675                      0.012779347165790675              -8.428762358958421e-32      1.5292919450661462e-18    1                             1                           0                     0.99975025146135699  0.019988450729104986  0.0099947957163060222        5.3838225661389088e-15              5.3838225661389088e-15       
                       1.5289680503758762e-18                          13                                          1762.8043010892538                  -4.8704916866331909e-09                -1.0564292892807743e-22             -2.1781568970387169e-22         2.7052949418966294e-24             0.063557120547633406                    0.063557120547633406                      0.063557120547633406              -1.0552478024840773e-29      1.5291831607811908e-18    2                             2                           0                     0.99975087559443254  0.019962264529120193  0.0099839813326086969        2.1535290264555635e-14              2.6919112830694542e-14       
                       1.5285602613890821e-18                          19                                          1755.8298299995145                  -4.6004312729292505e-09                -4.0778898679413625e-22             -2.1572657149050621e-22         4.5768056138101387e-23             0.26119898360315968                    0.26119898360315968                      0.26119898360315968              -7.8670163029088961e-28      1.5287302206911362e-18    3                             3                           0                     0.99975326611151305  0.019857813448121403  0.0099408274410417528        8.614116105822254e-14              1.1306027388891708e-13       
                       1.527139471872431e-18                          25                                          1709.667381309642                   -3.6897787978605665e-09                -1.4207895166511575e-21             -2.0864483016967535e-22         6.2887538012117119e-22             0.9632328359074156                     0.9632328359074156                       0.9632328359074156               -5.3457572088037025e-26      1.5267192947800515e-18    4                             4                           0                     0.99976136740192267  0.019444684770031303  0.0097698484938705966        3.4456464423289016e-13              4.5762491812180725e-13       
                       1.527139471872431e-18                          26                                          1709.667381309642                   -3.6897787978605665e-09                 0                               -2.0864483016967535e-22         6.2887538012117119e-22             0.9632328359074156                     0.9632328359074156                       0.9632328359074156               -5.3457572088037025e-26      1.5267192947800515e-18    5                             0                           1                     0.99976136740192267  0.019444684770031303  0.0097698484938705966        0                                4.5762491812180725e-13       
                       1.5245616740417981e-18                          32                                          1515.9954028566958                  -2.3225134992969804e-09                -2.5777978306328306e-21             -1.9628567675664202e-22         3.2845630046056541e-21             2.1544352834890552                     2.1544352834890552                       2.1544352834890552               -1.4350639431750685e-24      1.5214748317778922e-18    6                             1                           1                     0.99977549666272669  0.018416347005213007  0.0093418681903763047        8.8587092370452961e-13              1.3434958418263369e-12       
                       1.5225532525173476e-18                          38                                          1255.9729749458165                  -1.7091108789617726e-09                -2.0084215244505545e-21             -1.8641425547776063e-22         5.4459517472575674e-21             2.6958443457172359                     2.6958443457172359                       2.6958443457172359               -8.3321685250593694e-24      1.5173020471940928e-18    7                             2                           1                     0.99978676819010703  0.017289290027428964  0.0088680861536863942        1.0214781037570512e-12              2.3649739455833883e-12       
                       1.5206958372323882e-18                          44                                          981.17435743797171                  -1.4157594791471661e-09                -1.857415284959246e-21             -1.7820129520153668e-22         5.9048304659372381e-21             2.7166520857056269                     2.7166520857056269                       2.7166520857056269               -3.0584560786392656e-23      1.5149997926224389e-18    8                             3                           1                     0.99979611338288887  0.016039153585367703  0.0083357591657909572        1.2029360627486367e-12              3.567910008332025e-12       
                       1.5187692028274633e-18                          50                                          793.43054462580528                  -1.2687606571593409e-09                -1.9266344049249768e-21             -1.7588021316969774e-22         5.2153460464026626e-21             2.4364104653456353                     2.7166520857056269                       2.7166520857056269               -9.1474973137706803e-23      1.5138212119673681e-18    9                             4                           1                     0.99979865083683384  0.01463682077800274  0.0077287819972829174        1.4504694859803536e-12              5.0183794943123788e-12       
                       1.5187692028274633e-18                          51                                          793.43054462580528                  -1.2687606571593409e-09                 0                               -1.7588021316969774e-22         5.2153460464026626e-21             2.4364104653456353                     2.4364104653456353                       2.7166520857056269               -9.1474973137706803e-23      1.5138212119673681e-18    10                            0                           2                     0.99979865083683384  0.01463682077800274  0.0077287819972829174        0                                5.0183794943123788e-12       
                       1.51761558299678e-18                          63                                          785.9865589171784                   -1.2461271053411818e-09                -1.153619830683251e-21             -1.8022356132378282e-22         4.8901325444571601e-21             2.2782729287650709                     2.4364104653456353                       2.7166520857056269               -1.58021273345031e-22      1.5130636952869918e-18    11                            1                           2                     0.99979356017956456  0.01380393679885992  0.0073626299881268658        9.1981643993365218e-13              5.938195934246031e-12       
                       1.5165328758368656e-18                          69                                          758.83596721140759                  -1.250701875259907e-09                -1.0827071599144599e-21             -1.8886001155430713e-22         4.8639309758925092e-21             2.2007644949886997                     2.4364104653456353                       2.7166520857056269               -2.4692631885431277e-22      1.5121047311913817e-18    12                            2                           2                     0.99978351799140741  0.013055957105615527  0.0070297088633269195        8.6831792246740247e-13              6.8065138567134334e-12       
                       1.5153505515550761e-18                          75                                          727.95140751191423                  -1.2716087732327538e-09                -1.1823242817894893e-21             -2.0308359031013456e-22         5.10685652886629e-21             2.1889946273591887                     2.4364104653456353                       2.7166520857056269               -3.7766652894783975e-22      1.5108244451454677e-18    13                            3                           2                     0.99976700588450917  0.012287771917491577  0.0066832748057282267        9.3836248800929938e-13              7.7448763447227326e-12       
                       1.5139934741640636e-18                          81                                          696.72900755280909                  -1.3105102506476867e-09                -1.3570773910124714e-21             -2.2480684738556988e-22         5.5633976393228386e-21             2.220779149309235                      2.4364104653456353                       2.7166520857056269               -5.7564337334770756e-22      1.509230526745474e-18    14                            4                           2                     0.99974178634628641  0.011473875816063387  0.0063105976759323191        1.0522590192463819e-12              8.7971353639691147e-12       
                       1.5139934741640636e-18                          82                                          696.72900755280909                  -1.3105102506476867e-09                 0                               -2.2480684738556988e-22         5.5633976393228386e-21             2.220779149309235                      2.220779149309235                        2.7166520857056269               -5.7564337334770756e-22      1.509230526745474e-18    15                            0                           3                     0.99974178634628641  0.011473875816063387  0.0063105976759323191        0                                8.7971353639691147e-12       
                       1.5125620580636235e-18                          88                                          695.52895378875689                  -1.3657661566185061e-09                -1.4314161004401713e-21             -2.5295406364255396e-22         6.0692447981635915e-21             2.2562710104474766                     2.2562710104474766                       2.7166520857056269               -8.4342407063465789e-22      1.5075891913997371e-18    16                            1                           3                     0.99970908158671967  0.010694816856160885  0.0059477228417373646        1.0709710424540538e-12              9.8681064064231685e-12       
                       1.5114195661412759e-18                          100                                         690.57981731459643                  -1.4169644378791655e-09                -1.1424919223475484e-21             -2.7866682639251194e-22         6.4320258529806813e-21             2.2714966334304969                     2.2714966334304969                       2.7166520857056269               -1.1014530030961314e-21      1.5063676601177838e-18    17                            2                           3                     0.99967917335104717  0.010129435340616963  0.0056801343647399916        8.2159839425072219e-13              1.068970480067389e-11       
                       1.5103210395994182e-18                          106                                         686.86284276056256                  -1.4711467351521601e-09                -1.0985265418576937e-21             -3.057580517189532e-22         6.7438113577658176e-21             2.2754011485562762                     2.2754011485562762                       2.7166520857056269               -1.3864902631472658e-21      1.5052694765565186e-18    18                            3                           3                     0.99964762803905438  0.0096297817554038424  0.0054403520690530479        7.6100414141447701e-13              1.1450708942088367e-11       
                       1.5089905098936414e-18                          112                                         680.72973496345162                  -1.5416098806033789e-09                -1.3305297057767696e-21             -3.4132291442078521e-22         7.0902455554305398e-21             2.2714302250305445                     2.2754011485562762                       2.7166520857056269               -1.7791794851493199e-21      1.504020766737781e-18    19                            4                           3                     0.99960616417129267  0.0090775497450496442  0.0051713597340322225        8.8365367442703998e-13              1.2334362616515408e-11       
                       1.5089905098936414e-18                          113                                         680.72973496345162                  -1.5416098806033789e-09                 0                               -3.4132291442078521e-22         7.0902455554305398e-21             2.2714302250305445                     2.2714302250305445                       2.7166520857056269               -1.7791794851493199e-21      1.504020766737781e-18    20                            0                           4                     0.99960616417129267  0.0090775497450496442  0.0051713597340322225        0                                1.2334362616515408e-11       
                       1.5072746113789738e-18                          119                                         682.58318310531104                  -1.638293084697354e-09                -1.7158985146675947e-21             -3.9107338351649042e-22         7.5194783680794656e-21             2.2616918221881783                     2.2714302250305445                       2.7166520857056269               -2.3593677606197004e-21      1.5025055741550306e-18    21                            1                           4                     0.999548065283274    0.0084418340349482427  0.0048559321748488623        1.0798893901714117e-12              1.3414252006686819e-11       
                       1.5053290562693915e-18                          125                                         690.20386950949046                  -1.7540850455198597e-09                -1.9455551095824734e-21             -4.5197287315841972e-22         8.011411682068971e-21             2.2526410080105665                     2.2714302250305445                       2.7166520857056269               -3.1117426968717637e-21      1.5008813601573526e-18    22                            2                           4                     0.99947679708743997  0.007811061125553507  0.0045360276989769065        1.148061539434798e-12              1.4562313546121617e-11       
                       1.5039728362147168e-18                          137                                         691.64916441006574                  -1.8363719727995597e-09                -1.3562200546746518e-21             -4.967950192964693e-22         8.3612915837565696e-21             2.2488572514923941                     2.2714302250305445                       2.7166520857056269               -3.6913342481656717e-21      1.4997996738984223e-18    23                            3                           4                     0.99942424096406401  0.0074200883401828099  0.004333818519901657        7.5571753252897201e-13              1.5318031078650591e-11       
                       1.5026588411493884e-18                          143                                         694.72515990071054                  -1.9179746171380304e-09                -1.3139950653283921e-21             -5.4182133503467182e-22         8.7041389574926739e-21             2.2467186763706883                     2.2714302250305445                       2.7166520857056269               -4.2931752746585386e-21      1.4987896988015888e-18    24                            4                           4                     0.99937135971741897  0.0070743743484313606  0.0041522252193287911        7.0014092235106507e-13              1.6018172001001656e-11       
                       1.5026588411493884e-18                          144                                         694.72515990071054                  -1.9179746171380304e-09                 0                               -5.4182133503467182e-22         8.7041389574926739e-21             2.2467186763706883                     2.2467186763706883                       2.7166520857056269               -4.2931752746585386e-21      1.4987896988015888e-18    25                            0                           5                     0.99937135971741897  0.0070743743484313606  0.0041522252193287911        0                                1.6018172001001656e-11       
                       1.5009753006842828e-18                          150                                         697.60600187825924                  -2.0241412258509955e-09                -1.6835404651054401e-21             -6.0150590024742875e-22         9.1447548543151296e-21             2.2451159480853509                     2.2467186763706883                       2.7166520857056269               -5.1181850083101555e-21      1.4975502367385254e-18    26                            1                           5                     0.9993011332008902   0.0066732597940945652  0.0039379058665401524        8.5439126614591697e-13              1.6872563267147571e-11       
                       1.4987265226091805e-18                          156                                         705.2151931326232                   -2.1677530692067213e-09                -2.2487780751024367e-21             -6.8420886453209997e-22         9.7295304906205222e-21             2.2728989467977212                     2.2728989467977212                       2.7166520857056269               -6.3067077885328423e-21      1.4959879087716248e-18    27                            2                           5                     0.99920358328728986  0.0062003982732993391  0.0036796417332968893        1.0734142164622248e-12              1.7945977483609795e-11       
                       1.4960799499121953e-18                          162                                         714.76146885468586                  -2.3385677648589996e-09                -2.6465726969852471e-21             -7.8517409496475011e-22         1.0407608659347193e-20             2.336026921356281                      2.336026921356281                        2.7166520857056269               -7.8190484845980021e-21      1.4942765638324107e-18    28                            3                           5                     0.99908412514951861  0.0057204672701085734  0.0034103869251258349        1.1753748950907744e-12              1.9121352378700571e-11       
                       1.4937032663333929e-18                          168                                         723.03541593806676                  -2.492527125958066e-09                -2.3766835788022256e-21             -8.7861714544207497e-22         1.1006860989839663e-20             2.3867478676593405                     2.3867478676593405                       2.7166520857056269               -9.2698599781615868e-21      1.4928448824671569e-18    29                            4                           5                     0.99897321555419549  0.0053474067606005165  0.0031953326127259754        9.8456579197037272e-13              2.0105918170670943e-11       
                       1.4937032663333929e-18                          169                                         723.03541593806676                  -2.492527125958066e-09                 0                               -8.7861714544207497e-22         1.1006860989839663e-20             2.3867478676593405                     2.3867478676593405                       2.7166520857056269               -9.2698599781615868e-21      1.4928448824671569e-18    30                            0                           6                     0.99897321555419549  0.0053474067606005165  0.0031953326127259754        0                                2.0105918170670943e-11       
                       1.49180273575634e-18                          175                                         730.60939497008314                  -2.61444537371502e-09                -1.9005305770529779e-21             -9.5492991158080285e-22         1.1479968793250592e-20             2.4257144812951332                     2.4257144812951332                       2.7166520857056269               -1.0486152682547596e-20      1.4917638495572178e-18    31                            1                           6                     0.99888239254348477  0.0050820628044698129  0.0030388553767998708        7.4448880169490277e-13              2.0850406972365844e-11       
                       1.4899424986467085e-18                          181                                         736.01380929126822                  -2.7341835329219692e-09                -1.8602371096314695e-21             -1.0308398950766331e-21         1.1939067313596371e-20             2.4606823160146747                     2.4606823160146747                       2.7166520857056269               -1.1720753771403622e-20      1.4907550249995924e-18    32                            2                           6                     0.99879183297056873  0.0048466517860154554  0.0028972753598754861        6.9570972304839035e-13              2.1546116695414237e-11       
                       1.4875497967868451e-18                          187                                         743.26958368211376                  -2.8877760143024624e-09                -2.39270185986349e-21             -1.1300325874088049e-21         1.2524202531835805e-20             2.5031427393805887                     2.5031427393805887                       2.7166520857056269               -1.336696404584598e-20      1.4895225908882641e-18    33                            3                           6                     0.99867317702101799  0.0045744667437174185  0.0027299585980005369        8.513945031484515e-13              2.2397511198562689e-11       
                       1.4843589608700749e-18                          193                                         756.47991793596486                  -3.0913802697197039e-09                -3.1908359167702417e-21             -1.2646824174958991e-21         1.3295856468711717e-20             2.555228174105904                      2.555228174105904                        2.7166520857056269               -1.5653554711879878e-20      1.4879813415307389e-18    34                            4                           6                     0.99851153338663179  0.0042568618039425053  0.0025291071248189491        1.0676945081548825e-12              2.3465205706717572e-11       
# Table End
