# ODT 1.0
# Table Start
# Title: mmArchive Data Table, Wed May 13 17:26:11 EDT 2015
# Columns: {Oxs_CGEvolve:evolve:Max mxHxm} {Oxs_CGEvolve:evolve:Total energy} {Oxs_CGEvolve:evolve:Delta E} {Oxs_CGEvolve:evolve:Bracket count} {Oxs_CGEvolve:evolve:Line min count} {Oxs_CGEvolve:evolve:Conjugate cycle count} {Oxs_CGEvolve:evolve:Cycle count} {Oxs_CGEvolve:evolve:Cycle sub count} {Oxs_CGEvolve:evolve:Energy calc count} Oxs_UniformExchange::Energy {Oxs_UniformExchange::Max Spin Ang} {Oxs_UniformExchange::Stage Max Spin Ang} {Oxs_UniformExchange::Run Max Spin Ang} Oxs_UZeeman::Energy  Oxs_UZeeman::B       Oxs_UZeeman::Bx      Oxs_UZeeman::By      Oxs_UZeeman::Bz      Oxs_Demag::Energy    Oxs_MinDriver::Iteration {Oxs_MinDriver::Stage iteration} Oxs_MinDriver::Stage Oxs_MinDriver::mx    Oxs_MinDriver::my    Oxs_MinDriver::mz   
# Units:                 A/m                               J                                J                               {}                                   {}                                      {}                                     {}                                  {}                                     {}                                 J                              deg                                    deg                                      deg                            J                 mT                   mT                   mT                   mT                     J                       {}                           {}                         {}                 {}                   {}                   {}           
                 13835392.850018175                1.4659272332099376e-15             1.4659272332099376e-15              0                                    0                                       1                                      1                                   0                                      1                                 3.9981806500813893e-16             135                                    135                                      135                            0                    0                    0                    0                    0                    1.0661091682017985e-15    0                            0                          0                    0.98364086149024266 -0.0067761770394814671  0                  
                 13851365.53141599                 1.4657846227915487e-15            -1.4261041838877214e-19              1                                    0                                       1                                      1                                   0                                      2                                 3.9968832722689694e-16             134.98446913659018                     135                                      135                            0                    0                    0                    0                    0                    1.0660962955646518e-15    1                            1                          0                    0.98364184738832239 -0.0067795306845140988  8.4377799875231192e-08
                 16630636.400470089                1.4361970599493365e-15            -2.9587562842212315e-17              2                                    0                                       1                                      1                                   0                                      3                                 3.7269012627657566e-16             131.86062219143267                     135                                      135                            0                    0                    0                    0                    0                    1.0635069336727608e-15    2                            2                          0                    0.98382501249380705 -0.0074432635505855601  1.706664004835687e-05
                 18471070.277592927                1.4082562770022972e-15            -2.7940782947039264e-17              3                                    0                                       2                                      2                                   0                                      4                                 3.4694084969595606e-16             128.73679834432775                     135                                      135                            0                    0                    0                    0                    0                    1.061315427306341e-15    3                            3                          0                    0.98397658520920561 -0.0080642024335555174  3.0641604979101951e-05
                 19354120.421228129                1.3811720057783158e-15            -2.7084271223981376e-17              4                                    0                                       3                                      3                                   0                                      5                                 3.2184397379487075e-16             125.54146919285131                     135                                      135                            0                    0                    0                    0                    0                    1.059328031983445e-15    4                            4                          0                    0.98410690927497557 -0.0086574944776109265  4.2566126309532683e-05
                 19361805.717107423                1.318786996722819e-15            -6.2385009055496814e-17              4                                    0                                       4                                      4                                   0                                      6                                 3.2184397379487075e-16             125.54146919285131                     125.54146919285131                       135                           -6.2385009055496814e-17  10                   10                   0                    0                    1.059328031983445e-15    5                            0                          1                    0.98410690927497557 -0.0086574944776109265  4.2566126309532683e-05
                 19308537.21435586                 1.2920685748938422e-15            -2.6718421828976869e-17              5                                    0                                       4                                      4                                   0                                      7                                 2.9703422827141218e-16             122.1722726503467                      125.54146919285131                       135                           -6.2392333714979803e-17  10                   10                   0                    0                    1.0574266803374097e-15    6                            1                          1                    0.98422245382829743 -0.0092387341744632027  5.3826102655535808e-05
                 18347742.644416835                1.2653783860621854e-15            -2.6690188831656717e-17              6                                    0                                       5                                      5                                   0                                      8                                 2.7225543586977175e-16             118.5648548443673                      125.54146919285131                       135                           -6.239892239931768e-17  10                   10                   0                    0                    1.0555218725917314e-15    7                            2                          1                    0.98432638856964161 -0.0098225617865045894  6.5140399428730532e-05
                 16553818.07291818                 1.2383779882824346e-15            -2.7000397779750702e-17              7                                    0                                       6                                      6                                   0                                      9                                 2.4725616253488077e-16             114.61944882703338                     125.54146919285131                       135                           -6.240491248616347e-17  10                   10                   0                    0                    1.0535267382337173e-15    8                            3                          1                    0.98442088059491084 -0.010425278419118347  7.7180308898618953e-05
                 14287718.253168926                1.2106803928607841e-15            -2.7697595421650641e-17              8                                    0                                       7                                      7                                   0                                      10                                2.2175617465774375e-16             110.07284253333843                     125.54146919285131                       135                           -6.2410372279089396e-17  10                   10                   0                    0                    1.0513345904821297e-15    9                            4                          1                    0.98450700737477281 -0.011067478483421413  9.0761241939494013e-05
                 14295442.213135418                1.1482700205816946e-15            -6.2410372279089396e-17              8                                    0                                       8                                      8                                   0                                      11                                2.2175617465774375e-16             110.07284253333843                     110.07284253333843                       135                           -1.2482074455817879e-16  20                   20                   0                    0                    1.0513345904821297e-15    10                           0                          2                    0.98450700737477281 -0.011067478483421413  9.0761241939494013e-05
                 12612122.104823679                1.1198402843318234e-15            -2.842973624987134e-17              9                                    0                                       8                                      8                                   0                                      12                                1.958394913206568e-16             104.67561346081801                     110.07284253333843                       135                           -1.2483057081952284e-16  20                   20                   0                    0                    1.0488313638306893e-15    11                           1                          2                    0.98458451070311581 -0.011766729086342751  0.0001068030006323205
                 10494883.61624671                 1.0926146454259042e-15            -2.7225638905919039e-17              10                                   0                                       9                                      9                                   0                                      13                                1.7140785056866508e-16             98.47147228563405                      110.07284253333843                       135                           -1.2483848879425766e-16  20                   20                   0                    0                    1.0460452836514969e-15    12                           2                          2                    0.98464696267484741 -0.012495022162923213  0.00012538896001060336
                 8222994.8281771056                1.0661650375278435e-15            -2.6449607898060874e-17              11                                   0                                       10                                     10                                  0                                      14                                1.4823899911116133e-16             91.070983454445994                     110.07284253333843                       135                           -1.2484444905970702e-16  20                   20                   0                    0                    1.0427704874763891e-15    13                           3                          2                    0.98469397347518739 -0.013281269355478527  0.00014814696784598065
                 6866259.5178399077                1.0406314821340415e-15            -2.5533555393801884e-17              12                                   0                                       11                                     11                                  0                                      15                                1.2669721357805404e-16             82.184702668907931                     110.07284253333843                       135                           -1.2484797805326002e-16  20                   20                   0                    0                    1.0387822466092475e-15    14                           4                          2                    0.98472180794207986 -0.014141525285747041  0.00017700744131980253
                 6874216.1473842226                9.7820749310741149e-16            -6.242398902663001e-17              12                                   0                                       12                                     12                                  0                                      16                                1.2669721357805404e-16             82.184702668907931                     82.184702668907931                       135                           -1.8727196707989003e-16  30.000000000000004   30.000000000000004   0                    0                    1.0387822466092475e-15    15                           0                          3                    0.98472180794207986 -0.014141525285747041  0.00017700744131980253
                 5994579.1635316079                9.5487382681570298e-16            -2.3333666291708479e-17              13                                   0                                       12                                     12                                  0                                      17                                1.0808606535085372e-16             72.25517341234098                      82.184702668907931                       135                           -1.8727308897872474e-16  30.000000000000004   30.000000000000004   0                    0                    1.0340608504435741e-15    16                           1                          3                    0.98472770716055913 -0.015035530458864856  0.00021256831739098527
                 4860872.0664117038                9.3474075503857169e-16            -2.0133071777131323e-17              14                                   0                                       13                                     13                                  0                                      18                                9.3196642674088725e-17             62.584592511034124                     82.184702668907931                       135                           -1.8726852627265915e-16  30.000000000000004   30.000000000000004   0                    0                    1.0288126386371422e-15    17                           2                          3                    0.98470371533606948 -0.015893387935756106  0.00025373340233688361
                 4013997.7810488702                9.1549613933397863e-16            -1.9244615704593092e-17              15                                   0                                       14                                     14                                  0                                      19                                8.0214190876093549e-17             53.501183475689267                     82.184702668907931                       135                           -1.8725424194323882e-16  30.000000000000004   30.000000000000004   0                    0                    1.0225361904011239e-15    18                           3                          3                    0.98462860483815906 -0.016772322961065071  0.00030495484646773609
                 3215886.9149547475                8.97067431654821e-16            -1.8428707679157639e-17              16                                   0                                       15                                     15                                  0                                      20                                6.9111771327202826e-17             45.694858756400215                     82.184702668907931                       135                           -1.8722414521818976e-16  30.000000000000004   30.000000000000004   0                    0                    1.0151798055458078e-15    19                           4                          3                    0.98447034889646323 -0.017639514351843584  0.00036764967668273828
                 3223456.8593864772                8.3465938324875773e-16            -6.2408048406063246e-17              16                                   0                                       16                                     16                                  0                                      21                                6.9111771327202826e-17             45.694858756400215                     45.694858756400215                       135                           -2.4963219362425298e-16  40                   40                   0                    0                    1.0151798055458078e-15    20                           0                          4                    0.98447034889646323 -0.017639514351843584  0.00036764967668273828
                 2685351.8252198822                8.1611905428795463e-16            -1.8540328960803094e-17              17                                   0                                       16                                     16                                  0                                      22                                5.9308919553677285e-17             39.202136588610152                     45.694858756400215                       135                           -2.4955854163698876e-16  40                   40                   0                    0                    1.0063686763712661e-15    21                           1                          4                    0.98417988877372731 -0.018494810672247248  0.00044637754042770299
                 2146875.7967078197                7.9777618502358913e-16            -1.8342869264365516e-17              18                                   0                                       17                                     17                                  0                                      23                                5.1015736886612358e-17             34.116792113843701                     45.694858756400215                       135                           -2.4943334313923562e-16  40                   40                   0                    0                    9.961937912762123e-16    22                           2                          4                    0.98368614553101941 -0.019281873497340764  0.00054196566001618498
                 1763548.7299677483                7.7850427021185446e-16            -1.9271914811734688e-17              19                                   0                                       18                                     18                                  0                                      24                                4.3732172367242679e-17             29.820862754736989                     45.694858756400215                       135                           -2.4922344508382949e-16  40                   40                   0                    0                    9.8399554292844123e-16    23                           3                          4                    0.98285837404514531 -0.019999035173224905  0.00066256270165416847
                 1763329.9072883578                7.7849225338921648e-16            -1.2016822637917455e-20              20                                   0                                       18                                     18                                  0                                      25                                4.3727921382965632e-17             29.818053535686431                     45.694858756400215                       135                           -2.4922328480694003e-16  40                   40                   0                    0                    9.8398761681319095e-16    24                           4                          4                    0.9828577419638298  -0.01999947756756644  0.00066264087697087595
                 1771255.8616814828                7.1618643218748147e-16            -6.2305821201735009e-17              20                                   0                                       19                                     19                                  0                                      26                                4.3727921382965632e-17             29.818053535686431                     29.818053535686431                       135                           -3.1152910600867499e-16  50.000000000000007   50.000000000000007   0                    0                    9.8398761681319095e-16    25                           0                          5                    0.9828577419638298  -0.01999947756756644  0.00066264087697087595
                 1427087.4191596338                6.9644074907984769e-16            -1.9745683107633805e-17              21                                   0                                       19                                     19                                  0                                      27                                3.7588261339727748e-17             26.026386602743834                     29.818053535686431                       135                           -3.1112989579432777e-16  50.000000000000007   50.000000000000007   0                    0                    9.699823835344477e-16    26                           1                          5                    0.98159825499367392 -0.020556701421160083  0.00080895801843723191
                 1145623.4520676129                6.7539785116446823e-16            -2.1042897915379503e-17              22                                   0                                       20                                     20                                  0                                      28                                3.2417163477843848e-17             22.645136326551018                     29.818053535686431                       135                           -3.1051099386357818e-16  50.000000000000007   50.000000000000007   0                    0                    9.5349168155020253e-16    27                           2                          5                    0.97964565235584322 -0.020916376079013258  0.0009896195274348605
                 928601.98989223468                6.5280330732484475e-16            -2.2594543839623454e-17              23                                   0                                       21                                     21                                  0                                      29                                2.8241406755954797e-17             19.589954592120208                     29.818053535686431                       135                           -3.0957208483137229e-16  50.000000000000007   50.000000000000007   0                    0                    9.3413398540026223e-16    28                           3                          5                    0.97668344435182575 -0.020988147966682268  0.0012103110520035344
                 752315.16409325833                6.2878893974497853e-16            -2.401436757986626e-17              24                                   0                                       22                                     22                                  0                                      30                                2.5177969317725428e-17             17.189238116948843                     29.818053535686431                       135                           -3.0819334716741173e-16  50.000000000000007   50.000000000000007   0                    0                    9.1180431759466484e-16    29                           4                          5                    0.97233360043347594 -0.020669023502202948  0.0014720723752770773
                 760175.40461631131                5.6715027031149613e-16            -6.1638669433482346e-17              24                                   0                                       23                                     23                                  0                                      31                                2.5177969317725428e-17             17.189238116948843                     17.189238116948843                       135                           -3.6983201660089408e-16  60.000000000000007   60.000000000000007   0                    0                    9.1180431759466484e-16    30                           0                          6                    0.97233360043347594 -0.020669023502202948  0.0014720723752770773
                 1457453.2454340206                5.4325687850335519e-16            -2.3893391808140921e-17              25                                   0                                       23                                     23                                  0                                      32                                2.3786856567521922e-17             16.627567622250307                     17.189238116948843                       135                           -3.675599997576715e-16  60.000000000000007   60.000000000000007   0                    0                    8.8703002169350483e-16    31                           1                          6                    0.96636019029521814 -0.019815019413769019  0.0017635343444719041
                 3921977.3893390987                5.3908839946410691e-16            -4.1684790392483068e-18              26                                   0                                       24                                     24                                  0                                      33                                3.0198511799308247e-17             21.31850257369949                      21.31850257369949                        135                           -3.6628484385560656e-16  60.000000000000007   60.000000000000007   0                    0                    8.7517473152040517e-16    32                           2                          6                    0.96300764948286643 -0.019199223864579142  0.0019060810662420451
                 2284385.6641728175                5.3767072325127325e-16            -1.4176762128336457e-18              26                                   1                                       24                                     24                                  0                                      34                                2.5268856101186741e-17             18.273387812342754                     21.31850257369949                        135                           -3.6673033481357997e-16  60.000000000000007   60.000000000000007   0                    0                    8.7913220196366653e-16    33                           3                          6                    0.96417889969291615 -0.01941462855471135  0.0018586868771323132
                 2658027.6755292495                5.1254386192501214e-16            -2.5126861326261081e-17              27                                   1                                       24                                     25                                  1                                      35                                2.4575290044831967e-17             17.385523068976308                     21.31850257369949                        135                           -3.6339366925488247e-16  60.000000000000007   60.000000000000007   0                    0                    8.5136224113506265e-16    34                           4                          6                    0.95540639787993253 -0.017946184409105399  0.0021748808802339588
# Table End
