# ODT 1.0
# Table Start
# Title: mmArchive Data Table, Wed Jun 11 15:42:22 EDT 2014
# Columns: {Oxs_CGEvolve::Max mxHxm} {Oxs_CGEvolve::Total energy} {Oxs_CGEvolve::Delta E} {Oxs_CGEvolve::Bracket count} {Oxs_CGEvolve::Line min count} {Oxs_CGEvolve::Conjugate cycle count} {Oxs_CGEvolve::Cycle count} {Oxs_CGEvolve::Cycle sub count} {Oxs_CGEvolve::Energy calc count} Oxs_MinDriver::Iteration {Oxs_MinDriver::Stage iteration} Oxs_MinDriver::Stage Oxs_MinDriver::mx    Oxs_MinDriver::my    Oxs_MinDriver::mz    {Oxs_MinDriver::Max Spin Ang} {Oxs_MinDriver::Stage Max Spin Ang} {Oxs_MinDriver::Run Max Spin Ang}
# Units:              A/m                         J                          J                         {}                             {}                                {}                               {}                            {}                               {}                            {}                           {}                         {}                 {}                   {}                   {}                         deg                              deg                                deg               
              0                           0                         0                          0                              0                                 1                                1                             0                                1                             0                            0                          0                    0.99503719020998915  0.099503719020998915  0                        0                                0                                  0                         
# Table End
