# ODT 1.0
# Table Start
# Title: mmArchive Data Table, Thu May 14 00:20:37 EDT 2015
# Columns: {Oxs_CGEvolve::Max mxHxm} {Oxs_CGEvolve::Total energy} {Oxs_CGEvolve::Delta E} {Oxs_CGEvolve::Bracket count} {Oxs_CGEvolve::Line min count} {Oxs_CGEvolve::Conjugate cycle count} {Oxs_CGEvolve::Cycle count} {Oxs_CGEvolve::Cycle sub count} {Oxs_CGEvolve::Energy calc count} Oxs_Demag::Energy    Oxs_MinDriver::Iteration {Oxs_MinDriver::Stage iteration} Oxs_MinDriver::Stage Oxs_MinDriver::mx    Oxs_MinDriver::my    Oxs_MinDriver::mz    {Oxs_MinDriver::Max Spin Ang} {Oxs_MinDriver::Stage Max Spin Ang} {Oxs_MinDriver::Run Max Spin Ang} {Oxs_Demag::Real	"Tricky"\name	}
# Units:              A/m                         J                          J                         {}                             {}                                {}                               {}                            {}                               {}                         J                       {}                           {}                         {}                 {}                   {}                   {}                         deg                              deg                                deg                              {	}               
              126010.84353155272          2.9470444023571084e-20       2.9470444023571084e-20        0                              0                                 1                                1                             0                                1                           2.9470444023571084e-20    0                            0                          0                    1                    0                    0                        0                                0                                  0                                -14313.863651929752       
              125835.2092939437           2.9458020429156505e-20      -1.2423594414579362e-23        1                              0                                 1                                1                             0                                2                           2.9458020429156505e-20    1                            1                          0                    0.99999991633895791  2.4424906541753445e-20  0                        0.071904775507806121              0.071904775507806121                0.071904775507806121              -14310.841303760164       
              89654.752933550248          2.7485301757032259e-20      -1.9727186721242459e-21        2                              0                                 1                                1                             0                                3                           2.7485301757032259e-20    2                            2                          0                    0.99664321544786427  3.9790393202565615e-18 -2.842170943040401e-19      14.442900070287008               14.442900070287008                 14.442900070287008               -13621.198067113397       
              64376.727858590602          2.6424387342721787e-20      -1.0609144143104716e-21        3                              0                                 2                                2                             0                                4                           2.6424387342721787e-20    3                            3                          0                    0.98959518507406841  6.2527760746888819e-18 -5.684341886080802e-19      23.850753727241404               23.850753727241404                 23.850753727241404               -12987.982786602921       
              61212.901783068279          2.6323742018966046e-20      -1.0064532375574131e-22        4                              0                                 2                                2                             0                                5                           2.6323742018966046e-20    4                            4                          0                    0.98844736090057395  6.8212102632969627e-18 -1.1368683772161604e-18      25.0088973303071                 25.0088973303071                   25.0088973303071                 -12903.585194804346       
# Table End
