# ODT 1.0
# Table Start
# Title: mmArchive Data Table, Wed Jun 11 15:42:24 EDT 2014
# Columns: {Oxs_RungeKuttaEvolve:evolve:Total energy} {Oxs_RungeKuttaEvolve:evolve:Energy calc count} {Oxs_RungeKuttaEvolve:evolve:Max dm/dt} Oxs_RungeKuttaEvolve:evolve:dE/dt {Oxs_RungeKuttaEvolve:evolve:Delta E} Oxs_UniaxialAnisotropy::Energy Oxs_UniformExchange::Energy {Oxs_UniformExchange::Max Spin Ang} {Oxs_UniformExchange::Stage Max Spin Ang} {Oxs_UniformExchange::Run Max Spin Ang} Oxs_ScriptUZeeman::Energy Oxs_ScriptUZeeman::B Oxs_ScriptUZeeman::Bx Oxs_ScriptUZeeman::By Oxs_ScriptUZeeman::Bz Oxs_TimeDriver::Iteration {Oxs_TimeDriver::Stage iteration} Oxs_TimeDriver::Stage Oxs_TimeDriver::mx   Oxs_TimeDriver::my   Oxs_TimeDriver::mz   {Oxs_TimeDriver::Last time step} {Oxs_TimeDriver::Simulation time}
# Units:                       J                                            {}                                        deg/ns                                 J/s                                  J                                 J                             J                              deg                                    deg                                      deg                               J                      mT                   mT                    mT                    mT                      {}                            {}                          {}                   {}                   {}                   {}                          s                                 s                
                       0                                            1                                           0                                    0                                   0                                  0                            0                               0                                      0                                        0                                0                       0                    0                     0                     0                       0                             0                           0                     1                    0                    0                          0                                0                         
                      -1.9447952808368593e-28                          3                                           0.063339048516956542                 -5.8347504923747951e-15                -1.9447952808368593e-28                2.3930263455561799e-32          4.9514366148436673e-35             1.5673169863106445e-08                    1.5673169863106445e-08                      1.5673169863106445e-08             -1.9450350786150765e-28     0.0062831848937625724  0                     0.0062831848937625724   0                       1                             1                           0                     0.99999999999999878  1.9347622976067707e-08 -4.329310724578946e-08        1e-13                            1e-13                     
                      -3.4286492862577132e-25                          9                                           0.76590573615094248                 -8.5161842641849576e-13                -3.4267044909768763e-25                5.1033210669073526e-28          1.0557686912238805e-30             2.2890476077709516e-06                    2.2890476077709516e-06                      2.2890476077709516e-06             -3.4337631650115327e-25     0.075930811228565764  0                     0.075930811228565764   0                       2                             2                           0                     0.99999999997448341  2.8263914785159404e-06 -6.3218367157972982e-06        1.1084880067287767e-12              1.2084880067287767e-12       
                      -2.1659967331215205e-24                          11                                          1.4164794045735134                  -2.9093397403837948e-12                -1.823131804495749e-24                5.953760220652528e-27          1.2306853358953886e-29             7.8935291578994919e-06                    7.8935291578994919e-06                      7.8935291578994919e-06             -2.1719628001955321e-24     0.14035253146923893  0                     0.14035253146923893   0                       3                             3                           0                     0.99999999970231201  9.6719078445672738e-06 -2.1585481458461543e-05        1.0253652537482441e-12              2.2338532604770208e-12       
                      -3.5023478904715877e-23                          13                                          3.5887668378235942                  -1.8595845444227727e-11                -3.2857482171594354e-23                2.4368200822130435e-25          5.0292899717366047e-28             5.2979999595767821e-05                    5.2979999595767821e-05                      5.2979999595767821e-05             -3.5267663841934354e-23     0.35506604129052993  0                     0.35506604129052993   0                       4                             4                           0                     0.99999998781589949  6.2079408723778916e-05 -0.00013801050178250326        3.4183863711659087e-12              5.6522396316429291e-12       
# Table End
