# ODT 1.0
# Table Start
# Title: mmArchive Data Table, Wed Jun 16 18:46:24 EDT 2010
# Columns: {Oxs_RungeKuttaEvolve:evolve:Total energy} {Oxs_RungeKuttaEvolve:evolve:Energy calc count} {Oxs_RungeKuttaEvolve:evolve:Max dm/dt} Oxs_RungeKuttaEvolve:evolve:dE/dt {Oxs_RungeKuttaEvolve:evolve:Delta E} Oxs_UniaxialAnisotropy::Energy Oxs_UniformExchange::Energy {Oxs_UniformExchange::Max Spin Ang} {Oxs_UniformExchange::Stage Max Spin Ang} {Oxs_UniformExchange::Run Max Spin Ang} Oxs_ScriptUZeeman::Energy Oxs_ScriptUZeeman::B Oxs_ScriptUZeeman::Bx Oxs_ScriptUZeeman::By Oxs_ScriptUZeeman::Bz Oxs_TimeDriver::Iteration {Oxs_TimeDriver::Stage iteration} Oxs_TimeDriver::Stage Oxs_TimeDriver::mx   Oxs_TimeDriver::my   Oxs_TimeDriver::mz   {Oxs_TimeDriver::Last time step} {Oxs_TimeDriver::Simulation time}
# Units:                       J                                            {}                                        deg/ns                                 J/s                                  J                                 J                             J                              deg                                    deg                                      deg                               J                      mT                   mT                    mT                    mT                      {}                            {}                          {}                   {}                   {}                   {}                          s                                 s                
                       0                                            1                                           0                                    0                                   0                                  0                            0                               0                                      0                                        0                                0                       0                    0                     0                     0                       0                             0                           0                     1                    0                    0                          0                                0                         
                      -1.9447953767968302e-28                          3                                           0.063339048517129098                 -5.8347505883409288e-15                -1.9447953767968302e-28                2.3930265817384292e-32          4.9514371035309064e-35             0                                      0                                        0                               -1.9450351745987143e-28     0.0062831848937625724  0                     0.0062831848937625724   0                       1                             1                           0                     0.99999999999999878  1.9347623930834669e-08 -4.3293109382218755e-08        1e-13                            1e-13                     
                      -3.455233033206383e-25                          9                                           0.7678808342400727                  -8.5601350129810236e-13                -3.4532882378295858e-25                5.1561935818211318e-28          1.0667068535454186e-30             0                                      0                                        0                               -3.4603998938567393e-25     0.076126488429881609  0                     0.076126488429881609   0                       2                             2                           0                     0.99999999997421907  2.8409952675703965e-06 -6.3545006576468698e-06        1.1116023961254981e-12              1.2116023961254983e-12       
# Table End
