# ODT 1.0
# Table Start
# Title: mmArchive Data Table, Wed Jun 16 18:46:28 EDT 2010
# Columns: {Oxs_RungeKuttaEvolve:evolve:Total energy} {Oxs_RungeKuttaEvolve:evolve:Energy calc count} {Oxs_RungeKuttaEvolve:evolve:Max dm/dt} Oxs_RungeKuttaEvolve:evolve:dE/dt {Oxs_RungeKuttaEvolve:evolve:Delta E} Oxs_UniaxialAnisotropy::Energy Oxs_UniformExchange::Energy {Oxs_UniformExchange::Max Spin Ang} {Oxs_UniformExchange::Stage Max Spin Ang} {Oxs_UniformExchange::Run Max Spin Ang} Oxs_ScriptUZeeman::Energy Oxs_ScriptUZeeman::B Oxs_ScriptUZeeman::Bx Oxs_ScriptUZeeman::By Oxs_ScriptUZeeman::Bz Oxs_TimeDriver::Iteration {Oxs_TimeDriver::Stage iteration} Oxs_TimeDriver::Stage Oxs_TimeDriver::mx   Oxs_TimeDriver::my   Oxs_TimeDriver::mz   {Oxs_TimeDriver::Last time step} {Oxs_TimeDriver::Simulation time}
# Units:                       J                                            {}                                        deg/ns                                 J/s                                  J                                 J                             J                              deg                                    deg                                      deg                               J                      mT                   mT                    mT                    mT                      {}                            {}                          {}                   {}                   {}                   {}                          s                                 s                
                       0                                            1                                           0                                    0                                   0                                  0                            0                               0                                      0                                        0                                0                       0                    0                     0                     0                       0                             0                           0                     1                    0                    0                          0                                0                         
                      -1.9449969014470657e-28                          7                                           0.063339046769331817                 -5.8349520793460188e-15                -1.9449969014470657e-28                2.3929136394283359e-32          4.9509205483977992e-35             0                                      0                                        0                               -1.9452366879030632e-28     0.0062831848937625724  0                     0.0062831848937625724   0                       1                             1                           0                     0.99999999999999878  1.9349628420871929e-08 -4.32910667663182e-08        1e-13                            1e-13                     
                      -4.1569509810854029e-23                          19                                          3.7982543338599455                  -2.083463127368949e-11                -4.1569315311163884e-23                3.0546917271795068e-25          6.2962205914479118e-28             5.9959775422539587e-05                    5.9959775422539587e-05                      5.9959775422539587e-05             -4.1875608605631129e-23     0.37576381328090197  0                     0.37576381328090197   0                       2                             2                           0                     0.99999998472654128  6.9650813765173301e-05 -0.00015445905248413791        5.8818751145469557e-12              5.9818751145469557e-12       
# Table End
