# ODT 1.0
# Table Start
# Title: mmArchive Data Table, Wed Jun 11 15:42:23 EDT 2014
# Columns: {Oxs_RungeKuttaEvolve:evolve:Total energy} {Oxs_RungeKuttaEvolve:evolve:Energy calc count} {Oxs_RungeKuttaEvolve:evolve:Max dm/dt} Oxs_RungeKuttaEvolve:evolve:dE/dt {Oxs_RungeKuttaEvolve:evolve:Delta E} Oxs_UniaxialAnisotropy::Energy Oxs_UniformExchange::Energy {Oxs_UniformExchange::Max Spin Ang} {Oxs_UniformExchange::Stage Max Spin Ang} {Oxs_UniformExchange::Run Max Spin Ang} Oxs_ScriptUZeeman::Energy Oxs_ScriptUZeeman::B Oxs_ScriptUZeeman::Bx Oxs_ScriptUZeeman::By Oxs_ScriptUZeeman::Bz Oxs_TimeDriver::Iteration {Oxs_TimeDriver::Stage iteration} Oxs_TimeDriver::Stage Oxs_TimeDriver::mx   Oxs_TimeDriver::my   Oxs_TimeDriver::mz   {Oxs_TimeDriver::Last time step} {Oxs_TimeDriver::Simulation time}
# Units:                       J                                            {}                                        deg/ns                                 J/s                                  J                                 J                             J                              deg                                    deg                                      deg                               J                      mT                   mT                    mT                    mT                      {}                            {}                          {}                   {}                   {}                   {}                          s                                 s                
                       0                                            1                                           0                                    0                                   0                                  0                            0                               0                                      0                                        0                                0                       0                    0                     0                     0                       0                             0                           0                     1                    0                    0                          0                                0                         
                      -1.9447953767968302e-28                          3                                           0.063339048517129098                 -5.8347505883409288e-15                -1.9447953767968302e-28                2.3930265817384292e-32          4.9514371035309064e-35             1.5673170636546407e-08                    1.5673170636546407e-08                      1.5673170636546407e-08             -1.9450351745987143e-28     0.0062831848937625724  0                     0.0062831848937625724   0                       1                             1                           0                     0.99999999999999878  1.9347623930834669e-08 -4.3293109382218755e-08        1e-13                            1e-13                     
                      -3.455233033206383e-25                          9                                           0.7678808342400727                  -8.5601350129810236e-13                -3.4532882378295858e-25                5.1561935818211318e-28          1.0667068535454186e-30             2.3008750538581163e-06                    2.3008750538581163e-06                      2.3008750538581163e-06             -3.4603998938567393e-25     0.076126488429881609  0                     0.076126488429881609   0                       2                             2                           0                     0.99999999997421907  2.8409952675703965e-06 -6.3545006576468698e-06        1.1116023961254981e-12              1.2116023961254983e-12       
                      -2.1784285940500945e-24                          11                                          1.4191856699538321                  -2.9204550561728973e-12                -1.8329052907294563e-24                5.9993965445050422e-27          1.2401165700474502e-29             7.9239851495980934e-06                    7.9239851495980934e-06                      7.9239851495980934e-06             -2.1844403917603001e-24     0.1406203725352147   0                     0.1406203725352147    0                       3                             3                           0                     0.99999999970003017  9.7089434499136308e-06 -2.1668035373185633e-05        1.0265141080400487e-12              2.2381165041655472e-12       
                      -3.5321076966307698e-23                          13                                          3.5988742929880795                  -1.8700697914620701e-11                -3.3142648372257604e-23                2.4645716437069586e-25          5.0865360370737189e-28             5.3292974569294979e-05                    5.3292974569294979e-05                      5.3292974569294979e-05             -3.5568042784282102e-23     0.35606392976647966  0                     0.35606392976647966   0                       4                             4                           0                     0.99999998767714171  6.2432683801348852e-05 -0.00013879381181539256        3.4300150648281595e-12              5.6681315689937064e-12       
# Table End
