# ODT 1.0
# Table Start
# Title: mmArchive Data Table, Wed Jun 16 18:46:27 EDT 2010
# Columns: {Oxs_RungeKuttaEvolve:evolve:Total energy} {Oxs_RungeKuttaEvolve:evolve:Energy calc count} {Oxs_RungeKuttaEvolve:evolve:Max dm/dt} Oxs_RungeKuttaEvolve:evolve:dE/dt {Oxs_RungeKuttaEvolve:evolve:Delta E} Oxs_UniaxialAnisotropy::Energy Oxs_UniformExchange::Energy {Oxs_UniformExchange::Max Spin Ang} {Oxs_UniformExchange::Stage Max Spin Ang} {Oxs_UniformExchange::Run Max Spin Ang} Oxs_ScriptUZeeman::Energy Oxs_ScriptUZeeman::B Oxs_ScriptUZeeman::Bx Oxs_ScriptUZeeman::By Oxs_ScriptUZeeman::Bz Oxs_TimeDriver::Iteration {Oxs_TimeDriver::Stage iteration} Oxs_TimeDriver::Stage Oxs_TimeDriver::mx   Oxs_TimeDriver::my   Oxs_TimeDriver::mz   {Oxs_TimeDriver::Last time step} {Oxs_TimeDriver::Simulation time}
# Units:                       J                                            {}                                        deg/ns                                 J/s                                  J                                 J                             J                              deg                                    deg                                      deg                               J                      mT                   mT                    mT                    mT                      {}                            {}                          {}                   {}                   {}                   {}                          s                                 s                
                       0                                            1                                           0                                    0                                   0                                  0                            0                               0                                      0                                        0                                0                       0                    0                     0                     0                       0                             0                           0                     1                    0                    0                          0                                0                         
                      -1.9449969014470659e-28                          7                                           0.06333904676931211                 -5.8349520793460196e-15                -1.9449969014470659e-28                2.3929136394283367e-32          4.950920548254369e-35             0                                      0                                        0                               -1.9452366879030637e-28     0.0062831848937625724  0                     0.0062831848937625724   0                       1                             1                           0                     0.99999999999999878  1.9349628420871936e-08 -4.3291066766318213e-08        1e-13                            1e-13                     
                      -4.2725442013467554e-23                          19                                          3.8323919040922583                  -2.1218806445030147e-11                -4.2725247513777409e-23                3.1684471380709547e-25          6.5292578402481716e-28             6.0859842307690862e-05                    6.0859842307690862e-05                      6.0859842307690862e-05             -4.304293965305867e-23     0.37921554505665628  0                     0.37921554505665628   0                       2                             2                           0                     0.99999998415776414  7.0940755551417148e-05 -0.0001573067014966126        5.9368503156258799e-12              6.0368503156258798e-12       
# Table End
