# ODT 1.0
# Table Start
# Title: mmArchive Data Table, Wed Jun 16 18:46:26 EDT 2010
# Columns: {Oxs_RungeKuttaEvolve:evolve:Total energy} {Oxs_RungeKuttaEvolve:evolve:Energy calc count} {Oxs_RungeKuttaEvolve:evolve:Max dm/dt} Oxs_RungeKuttaEvolve:evolve:dE/dt {Oxs_RungeKuttaEvolve:evolve:Delta E} Oxs_UniaxialAnisotropy::Energy Oxs_UniformExchange::Energy {Oxs_UniformExchange::Max Spin Ang} {Oxs_UniformExchange::Stage Max Spin Ang} {Oxs_UniformExchange::Run Max Spin Ang} Oxs_ScriptUZeeman::Energy Oxs_ScriptUZeeman::B Oxs_ScriptUZeeman::Bx Oxs_ScriptUZeeman::By Oxs_ScriptUZeeman::Bz Oxs_TimeDriver::Iteration {Oxs_TimeDriver::Stage iteration} Oxs_TimeDriver::Stage Oxs_TimeDriver::mx   Oxs_TimeDriver::my   Oxs_TimeDriver::mz   {Oxs_TimeDriver::Last time step} {Oxs_TimeDriver::Simulation time}
# Units:                       J                                            {}                                        deg/ns                                 J/s                                  J                                 J                             J                              deg                                    deg                                      deg                               J                      mT                   mT                    mT                    mT                      {}                            {}                          {}                   {}                   {}                   {}                          s                                 s                
                       0                                            1                                           0                                    0                                   0                                  0                            0                               0                                      0                                        0                                0                       0                    0                     0                     0                       0                             0                           0                     1                    0                    0                          0                                0                         
                      -1.9449969014471034e-28                          12                                          0.063339046769301161                 -5.8349520793460567e-15                -1.9449969014471034e-28                2.3929136394282858e-32          4.9509205481133304e-35             0                                      0                                        0                               -1.9452366879031009e-28     0.0062831848937625724  0                     0.0062831848937625724   0                       1                             1                           0                     0.99999999999999878  1.9349628420872303e-08 -4.3291066766317538e-08        1e-13                            1e-13                     
                      -6.519234425567591e-24                          33                                          2.0457327301023267                  -6.0627062242723795e-12                -6.5190399258774465e-24                2.5844941162173409e-26          5.3368579275080797e-29             1.6885917326325261e-05                    1.6885917326325261e-05                      1.6885917326325261e-05             -6.5451327353090397e-24     0.20261885960100015  0                     0.20261885960100015   0                       2                             2                           0                     0.99999999870775291  2.0189176701633935e-05 -4.4957455194530374e-05        3.1250000000000001e-12              3.2250000000000001e-12       
# Table End
