# ODT 1.0
# Table Start
# Title: mmArchive Data Table, Wed Jun 11 15:42:26 EDT 2014
# Columns: {Oxs_RungeKuttaEvolve:evolve:Total energy} {Oxs_RungeKuttaEvolve:evolve:Energy calc count} {Oxs_RungeKuttaEvolve:evolve:Max dm/dt} Oxs_RungeKuttaEvolve:evolve:dE/dt {Oxs_RungeKuttaEvolve:evolve:Delta E} Oxs_UniaxialAnisotropy::Energy Oxs_UniformExchange::Energy {Oxs_UniformExchange::Max Spin Ang} {Oxs_UniformExchange::Stage Max Spin Ang} {Oxs_UniformExchange::Run Max Spin Ang} Oxs_ScriptUZeeman::Energy Oxs_ScriptUZeeman::B Oxs_ScriptUZeeman::Bx Oxs_ScriptUZeeman::By Oxs_ScriptUZeeman::Bz Oxs_TimeDriver::Iteration {Oxs_TimeDriver::Stage iteration} Oxs_TimeDriver::Stage Oxs_TimeDriver::mx   Oxs_TimeDriver::my   Oxs_TimeDriver::mz   {Oxs_TimeDriver::Last time step} {Oxs_TimeDriver::Simulation time}
# Units:                       J                                            {}                                        deg/ns                                 J/s                                  J                                 J                             J                              deg                                    deg                                      deg                               J                      mT                   mT                    mT                    mT                      {}                            {}                          {}                   {}                   {}                   {}                          s                                 s                
                       0                                            1                                           0                                    0                                   0                                  0                            0                               0                                      0                                        0                                0                       0                    0                     0                     0                       0                             0                           0                     1                    0                    0                          0                                0                         
                      -1.9449969014470659e-28                          7                                           0.06333904676931211                 -5.8349520793460196e-15                -1.9449969014470659e-28                2.3929136394283367e-32          4.950920548254369e-35             1.56719146186989e-08                    1.56719146186989e-08                      1.56719146186989e-08             -1.9452366879030637e-28     0.0062831848937625724  0                     0.0062831848937625724   0                       1                             1                           0                     0.99999999999999878  1.9349628420871936e-08 -4.3291066766318213e-08        1e-13                            1e-13                     
                      -4.2725442013467554e-23                          19                                          3.8323919040922583                  -2.1218806445030147e-11                -4.2725247513777409e-23                3.1684471380709547e-25          6.5292578402481716e-28             6.0859842514187439e-05                    6.0859842514187439e-05                      6.0859842514187439e-05             -4.304293965305867e-23     0.37921554505665628  0                     0.37921554505665628   0                       2                             2                           0                     0.99999998415776414  7.0940755551417148e-05 -0.0001573067014966126        5.9368503156258799e-12              6.0368503156258798e-12       
                      -4.9395784611760031e-22                          25                                          8.6946688907897212                  -1.0821960258084663e-10                -4.5123240410413275e-22                8.2778180561125917e-24          1.7058947933582462e-26             0.00043289262068579095                    0.00043289262068579095                      0.00043289262068579095             -5.0225272312164654e-22     0.85748025998475152  0                     0.85748025998475152   0                       3                             3                           0                     0.99999958610900785  0.00036608184071387399 -0.00080258156068219438        7.6271515040223619e-12              1.3664001819648242e-11       
                      -1.4147147193308671e-21                          37                                          12.718338298284412                  -2.1767313532566361e-10                -9.2075687321326678e-22                3.3669990506251202e-23          7.7535505561427796e-26             0.001678860501132158                    0.001678860501132158                      0.001678860501132158             -1.4484622453426797e-21     1.2174327436171746   0                     1.2174327436171746    0                       4                             4                           0                     0.99999831649899606  0.00074360485873694031 -0.001616395586530992        5.7602275899616796e-12              1.9424229409609921e-11       
# Table End
