# ODT 1.0
# Table Start
# Title: mmArchive Data Table, Wed Jun 11 15:42:29 EDT 2014
# Columns: {Oxs_RungeKuttaEvolve:evolve:Total energy} {Oxs_RungeKuttaEvolve:evolve:Energy calc count} {Oxs_RungeKuttaEvolve:evolve:Max dm/dt} Oxs_RungeKuttaEvolve:evolve:dE/dt {Oxs_RungeKuttaEvolve:evolve:Delta E} Oxs_UniaxialAnisotropy::Energy Oxs_UniformExchange::Energy {Oxs_UniformExchange::Max Spin Ang} {Oxs_UniformExchange::Stage Max Spin Ang} {Oxs_UniformExchange::Run Max Spin Ang} Oxs_ScriptUZeeman::Energy Oxs_ScriptUZeeman::B Oxs_ScriptUZeeman::Bx Oxs_ScriptUZeeman::By Oxs_ScriptUZeeman::Bz Oxs_TimeDriver::Iteration {Oxs_TimeDriver::Stage iteration} Oxs_TimeDriver::Stage Oxs_TimeDriver::mx   Oxs_TimeDriver::my   Oxs_TimeDriver::mz   {Oxs_TimeDriver::Last time step} {Oxs_TimeDriver::Simulation time}
# Units:                       J                                            {}                                        deg/ns                                 J/s                                  J                                 J                             J                              deg                                    deg                                      deg                               J                      mT                   mT                    mT                    mT                      {}                            {}                          {}                   {}                   {}                   {}                          s                                 s                
                       0                                            1                                           0                                    0                                   0                                  0                            0                               0                                      0                                        0                                0                       0                    0                     0                     0                       0                             0                           0                     1                    0                    0                          0                                0                         
                      -1.9449969014470661e-28                          7                                           0.063339046769306795                 -5.8349520793460196e-15                -1.9449969014470661e-28                2.392913639428337e-32          4.9509205482157379e-35             1.5671914595517778e-08                    1.5671914595517778e-08                      1.5671914595517778e-08             -1.9452366879030637e-28     0.0062831848937625724  0                     0.0062831848937625724   0                       1                             1                           0                     0.99999999999999878  1.9349628420871936e-08 -4.329106676631822e-08        1e-13                            1e-13                     
                      -4.968337641540943e-23                          19                                          4.0301644338464708                  -2.3462247168820836e-11                -4.9683181915719285e-23                3.8743162049017529e-25          7.9819017900399302e-28             6.8563805198863627e-05                    6.8563805198863627e-05                      6.8563805198863627e-05             -5.0071606226078609e-23     0.39877784299960645  0                     0.39877784299960645   0                       2                             2                           0                     0.99999998062841877  7.8476661732006049e-05 -0.00017393593590282329        6.2484298350189038e-12              6.3484298350189038e-12       
                      -5.6202264012426881e-22                          25                                          9.1292230138981179                  -1.1791654452286445e-10                -5.1233926370885937e-22                9.8324307701053889e-24          2.0400987124580961e-26             0.00056560757674233768                    0.00056560757674233768                      0.00056560757674233768             -5.7187547188149877e-22     0.89516977364398664  0                     0.89516977364398664   0                       3                             3                           0                     0.99999950837833551  0.00039927864015221464 -0.00087457829564745442        7.9177361935899112e-12              1.4266166028608815e-11       
                      -1.5188060990467147e-21                          37                                          12.767867193693323                  -2.2816886362678362e-10                -9.5678345892244579e-22                3.7014161420830167e-23          9.4211914393796287e-26             0.0019514049573602769                    0.0019514049573602769                      0.0019514049573602769             -1.5559144723819385e-21     1.2465536035939291   0                     1.2465536035939291    0                       4                             4                           0                     0.99999814929014197  0.00078010808555288623 -0.0016945746034182812        5.6250943026560942e-12              1.9891260331264909e-11       
# Table End
