# ODT 1.0
# Table Start
# Title: mmArchive Data Table, Wed May 13 17:26:22 EDT 2015
# Columns: {Oxs_CGEvolve::Max mxHxm} {Oxs_CGEvolve::Total energy} {Oxs_CGEvolve::Delta E} {Oxs_CGEvolve::Bracket count} {Oxs_CGEvolve::Line min count} {Oxs_CGEvolve::Conjugate cycle count} {Oxs_CGEvolve::Cycle count} {Oxs_CGEvolve::Cycle sub count} {Oxs_CGEvolve::Energy calc count} Oxs_UniformExchange::Energy {Oxs_UniformExchange::Max Spin Ang} {Oxs_UniformExchange::Stage Max Spin Ang} {Oxs_UniformExchange::Run Max Spin Ang} Oxs_Demag::Energy    Oxs_UZeeman::Energy  Oxs_UZeeman::B       Oxs_UZeeman::Bx      Oxs_UZeeman::By      Oxs_UZeeman::Bz      Oxs_MinDriver::Iteration {Oxs_MinDriver::Stage iteration} Oxs_MinDriver::Stage Oxs_MinDriver::mx    Oxs_MinDriver::my    Oxs_MinDriver::mz   
# Units:              A/m                         J                          J                         {}                             {}                                {}                               {}                            {}                               {}                              J                              deg                                    deg                                      deg                           J                     J                 mT                   mT                   mT                   mT                        {}                           {}                         {}                 {}                   {}                   {}           
              643729.11380331137          5.4186810761201075e-17       5.4186810761201075e-17        0                              0                                 1                                1                             0                                1                              1.3761824345205587e-17             90                                     90                                       90                             4.0424986415995484e-17  0                    0                    0                    0                    0                      0                            0                          0                   -4.5629747091879838e-17  4.5772821977152489e-17  0.038399999999999997
              643808.69775509217          5.4171634631570189e-17      -1.5176129630882981e-20        1                              0                                 1                                1                             0                                2                              1.3748526581296409e-17             89.95909269501783                      90                                       90                             4.0423108050273783e-17  0                    0                    0                    0                    0                      1                            1                          0                   -4.5942726956127444e-17  4.5783366431351171e-17  0.038399234441510624
              644136.10168826208          5.1236864797429973e-17      -2.9347698341402163e-18        2                              0                                 1                                1                             0                                3                              1.1274748339905154e-17             81.748281779889581                     90                                       90                             3.996211645752482e-17  0                    0                    0                    0                    0                      2                            2                          0                   -4.5910923063274824e-17  4.5691763261856976e-17  0.03812681092868761
              619719.59821711713          4.8616366454150031e-17      -2.6204983432799433e-18        3                              0                                 2                                2                             0                                4                              9.3264407579627247e-18             73.915236127842277                     90                                       90                             3.9289925696187308e-17  0                    0                    0                    0                    0                      3                            3                          0                   -4.5940964810142762e-17  4.5641598944712315e-17  0.037684123129897835
              572136.2906268934           4.6184248429369548e-17      -2.4321180247804842e-18        4                              0                                 3                                3                             0                                5                              7.8143787701654832e-18             66.369879997583908                     90                                       90                             3.8369869659204065e-17  0                    0                    0                    0                    0                      4                            4                          0                   -4.5815710336682969e-17  4.5628922862306352e-17  0.037011494340107108
              572273.5513486868           4.6184248429369548e-17       1.8055593228630336e-35        4                              0                                 4                                4                             0                                6                              7.8143787701654832e-18             66.369879997583908                     66.369879997583908                       90                             3.8369869659204065e-17  1.8255427268270125e-35  0.20000000000000001  0.20000000000000001  0                    0                      5                            0                          1                   -4.5815710336682969e-17  4.5628922862306352e-17  0.037011494340107108
              503681.26336660137          4.3820104081667467e-17      -2.3641443477020809e-18        5                              0                                 4                                4                             0                                7                              6.662453466177085e-18             58.953231710493142                     66.369879997583908                       90                             3.715766077335021e-17 -1.0157859828440784e-23  0.20000000000000001  0.20000000000000001  0                    0                      6                            1                          1                    2.5394649571101766e-05  4.5654417135665429e-17  0.036053626409027609
              416960.38428579236          4.1378343681516294e-17      -2.4417604001511751e-18        6                              0                                 5                                5                             0                                8                              5.8003681004812701e-18             51.416481761686363                     66.369879997583908                       90                             3.5577997303581221e-17 -2.1722546199461167e-23  0.20000000000000001  0.20000000000000001  0                    0                      7                            2                          1                    5.4306365498653077e-05  4.5737607479168221e-17  0.034729990170796358
              366638.4076649198           3.8639149159805607e-17      -2.7391945217106843e-18        7                              0                                 6                                6                             0                                9                              5.1595679424250794e-18             43.354977485047193                     66.369879997583908                       90                             3.3479616946967477e-17 -3.5729586949329761e-23  0.20000000000000001  0.20000000000000001  0                    0                      8                            3                          1                    8.9323967373324456e-05  4.5904528178652984e-17  0.032886870487101746
              393975.19546903193          3.5659655148241641e-17      -2.9794940115639641e-18        8                              0                                 7                                7                             0                                10                             4.7181374426884099e-18             38.277660869573261                     66.369879997583908                       90                             3.0941569429177677e-17 -5.172362444703491e-23  0.20000000000000001  0.20000000000000001  0                    0                      9                            4                          1                    0.00012930906111758818  4.6181781954146574e-17  0.030574575680294539
              394111.56264280248          3.5659603424617193e-17      -5.1723624447034992e-23        8                              0                                 8                                8                             0                                11                             4.7181374426884099e-18             38.277660869573261                     38.277660869573261                       90                             3.0941569429177677e-17 -1.0344724889406982e-22  0.40000000000000002  0.40000000000000002  0                    0                      10                           0                          2                    0.00012930906111758818  4.6181781954146574e-17  0.030574575680294539
              386312.02990923397          3.2940599727700206e-17      -2.7190036969169893e-18        9                              0                                 8                                8                             0                                12                             4.433025111091241e-18             34.004450598961384                     38.277660869573261                       90                             2.8507737264227004e-17 -1.6264761804001786e-22  0.40000000000000002  0.40000000000000002  0                    0                      11                           1                          2                    0.00020330952255002204  4.6586421831307231e-17  0.028306482652783949
              348545.4745707562           3.0220601349060805e-17      -2.7199983786393994e-18        10                             0                                 9                                9                             0                                13                             4.2151027897236854e-18             32.217909081102029                     38.277660869573261                       90                             2.6005721645932191e-17 -2.2308659506826407e-22  0.40000000000000002  0.40000000000000002  0                    0                      12                           2                          2                    0.00027885824383533007  4.7081044840524553e-17  0.025913419624430549
              356006.26022578793          2.7309408683328369e-17      -2.9111926657324383e-18        11                             0                                 10                               10                            0                                14                             4.036765086492316e-18             32.574345831616974                     38.277660869573261                       90                             2.3272933714527398e-17 -2.9011769134476147e-22  0.40000000000000002  0.40000000000000002  0                    0                      13                           3                          2                    0.00036264711418095171  4.7764672217454061e-17  0.02321207852954801
              367866.71613942168          2.4593668508250089e-17      -2.7157401750782819e-18        12                             0                                 11                               11                            0                                15                             3.8989469014302717e-18             30.645201355887178                     38.277660869573261                       90                             2.0695077407844759e-17 -3.5580102494362517e-22  0.40000000000000002  0.40000000000000002  0                    0                      14                           4                          2                    0.00044475128117953106  4.8555364173807901e-17  0.020595352920225116
              367991.19888557697          2.4593490607737615e-17      -1.7790051247181343e-22        12                             0                                 12                               12                            0                                16                             3.8989469014302717e-18             30.645201355887178                     30.645201355887178                       90                             2.0695077407844759e-17 -5.3370153741543776e-22  0.60000000000000009  0.60000000000000009  0                    0                      15                           0                          3                    0.00044475128117953106  4.8555364173807901e-17  0.020595352920225116
              345568.73777074576          2.2115131658250329e-17      -2.478358949487287e-18        13                             0                                 12                               12                            0                                17                             3.7908990316891351e-18             28.699180455383583                     30.645201355887178                       90                             1.8324908119549694e-17 -6.7549298850017803e-22  0.60000000000000009  0.60000000000000009  0                    0                      16                           1                          3                    0.00056291082375014851  4.9434504489909158e-17  0.018129926406828766
              343628.35923191503          1.9668678708984827e-17      -2.4464529492655016e-18        14                             0                                 13                               13                            0                                18                             3.7052580984706799e-18             30.177497360731461                     30.645201355887178                       90                             1.5964246079304753e-17 -8.2546879060548173e-22  0.60000000000000009  0.60000000000000009  0                    0                      17                           2                          3                    0.00068789065883790126  5.0431793852112606e-17  0.015595071606065504
              354019.81999898434          1.7439739220370416e-17      -2.2289394886144092e-18        15                             0                                 14                               14                            0                                19                             3.6445926068199129e-18             28.937420897550531                     30.645201355887178                       90                             1.3796121425752578e-17 -9.7481220207285333e-22  0.60000000000000009  0.60000000000000009  0                    0                      18                           3                          3                    0.00081234350172737762  5.1482828666848948e-17  0.013194983701086724
              335920.49757801573          1.5522111681667516e-17      -1.9176275387029017e-18        16                             0                                 15                               15                            0                                20                             3.610928513818618e-18             27.634660378025146                     30.645201355887178                       90                             1.191230093706309e-17 -1.1177692141934554e-21  0.60000000000000009  0.60000000000000009  0                    0                      19                           4                          3                    0.00093147434516121261  5.2499785851978231e-17  0.011045702484403074
              336013.7898544668           1.552173909192945e-17      -3.7258973806448637e-22        16                             0                                 16                               16                            0                                21                             3.610928513818618e-18             27.634660378025146                     27.634660378025146                       90                             1.191230093706309e-17 -1.4903589522579404e-21  0.80000000000000004  0.80000000000000004  0                    0                      20                           0                          4                    0.00093147434516121261  5.2499785851978231e-17  0.011045702484403074
              325204.69562709512          1.3789156501652113e-17      -1.7325825902773391e-18        17                             0                                 16                               16                            0                                22                             3.6106264316444784e-18             29.193630079174408                     29.193630079174408                       90                             1.0180284744136001e-17 -1.7546741283681574e-21  0.80000000000000004  0.80000000000000004  0                    0                      21                           1                          4                    0.0010966713302300985  5.3505260666497636e-17  0.0089847705769289851
              322714.57712574385          1.2334121326865148e-17      -1.4550351747869644e-18        18                             0                                 17                               17                            0                                23                             3.6497223164117239e-18             28.31872654044804                      29.193630079174408                       90                             8.6864203069712218e-18 -2.0212965177978476e-21  0.80000000000000004  0.80000000000000004  0                    0                      22                           2                          4                    0.0012633103236236543  5.4375846048060339e-17  0.0071155351207923207
              290532.44991224678          1.1214887695073592e-17      -1.1192336317915562e-18        19                             0                                 18                               18                            0                                24                             3.7257432665767974e-18             31.633173377241341                     31.633173377241341                       90                             7.4914270413271525e-18 -2.2826128303583701e-21  0.80000000000000004  0.80000000000000004  0                    0                      23                           3                          4                    0.0014266330189739809  5.5086871952880756e-17  0.0055302689375214265
              233004.14649150558          1.0338722596690603e-17      -8.7616509838298881e-19        20                             0                                 19                               19                            0                                25                             3.8417059429328102e-18             39.410544952676346                     39.410544952676346                       90                             6.4995811147779788e-18 -2.5644610201861855e-21  0.80000000000000004  0.80000000000000004  0                    0                      24                           4                          4                    0.0016027881376163657  5.5673950782875181e-17  0.0041074549462798548
              232926.40783716607          1.0338081481435557e-17      -6.4111525504654712e-22        20                             0                                 20                               20                            0                                26                             3.8417059429328102e-18             39.410544952676346                     39.410544952676346                       90                             6.4995811147779788e-18 -3.2055762752327318e-21  1                    1                    0                    0                      25                           0                          5                    0.0016027881376163657  5.5673950782875181e-17  0.0041074549462798548
              207524.89315369527          9.6606756572493713e-18      -6.7740582418618507e-19        21                             0                                 20                               20                            0                                27                             4.0010281208235216e-18             51.723253609029122                     51.723253609029122                       90                             5.6633996059851764e-18 -3.7520695593263495e-21  1                    1                    0                    0                      26                           1                          5                    0.0018760347796631749  5.6178890872615745e-17  0.0027847123859226167
              176228.56312285701          9.2472371647241318e-18      -4.1343849252523972e-19        22                             0                                 21                               21                            0                                28                             4.1534004444044017e-18             63.8123996134564                       63.8123996134564                         90                             5.0981805126330726e-18 -4.3437923133429149e-21  1                    1                    0                    0                      27                           2                          5                    0.0021718961566714575  5.6495679245927017e-17  0.001844682769216636
              139602.83450160912          8.97775991333016e-18      -2.694772513939717e-19        23                             0                                 22                               22                            0                                29                             4.282141759463783e-18             74.687246418016173                     74.687246418016173                       90                             4.7006305195212043e-18 -5.0123656548272192e-21  1                    1                    0                    0                      28                           3                          5                    0.002506182827413609  5.6524328329032872e-17  0.0012045741647882986
              100214.55537186417          8.7787234132411618e-18      -1.9903650008899831e-19        24                             0                                 23                               23                            0                                30                             4.3867859113195445e-18             83.424578473757975                     83.424578473757975                       90                             4.397744610860894e-18 -5.8071089392770094e-21  1                    1                    0                    0                      29                           4                          5                    0.0029035544696385043  5.6057245956253611e-17  0.00076688871134076946
              100167.62093003039          8.7775619914533056e-18      -1.1614217878554014e-21        24                             0                                 24                               24                            0                                31                             4.3867859113195445e-18             83.424578473757975                     83.424578473757975                       90                             4.397744610860894e-18 -6.9685307271324116e-21  1.2000000000000002   1.2000000000000002   0                    0                      30                           0                          6                    0.0029035544696385043  5.6057245956253611e-17  0.00076688871134076946
              62984.686686080924          8.6239540648048978e-18      -1.5360792664840928e-19        25                             0                                 24                               24                            0                                32                             4.4676183734726182e-18             88.859330010345204                     88.859330010345204                       90                             4.1647238236786751e-18 -8.388132346396356e-21  1.2000000000000002   1.2000000000000002   0                    0                      31                           1                          6                    0.0034950551443318142  5.4787278713774868e-17  0.00046770155863388313
              58530.917869437835          8.6073765514191133e-18      -1.657751338578436e-20        26                             0                                 24                               24                            0                                33                             4.4769368351341622e-18             89.361577508676419                     89.361577508676419                       90                             4.1390068556708498e-18 -8.567139385899493e-21  1.2000000000000002   1.2000000000000002   0                    0                      32                           2                          6                    0.0035696414107914548  5.4642754321321266e-17  0.00042980086432011611
              27124.641868765248          8.4792120145205047e-18      -1.2816453689860794e-19        27                             0                                 25                               25                            0                                34                             4.543658917109898e-18             91.425603683645534                     91.425603683645534                       91.425603683645534             3.9459635186723613e-18 -1.0410421261754445e-20  1.2000000000000002   1.2000000000000002   0                    0                      33                           3                          6                    0.0043376755257310187  5.2102677727816629e-17  0.00020566034238626895
              15798.572956018494          8.440166104669421e-18      -3.9045909851083909e-20        28                             0                                 25                               25                            0                                35                             4.566519686794977e-18             91.706581881052188                     91.706581881052188                       91.706581881052188             3.8847378709829635e-18 -1.1091453108519978e-20  1.2000000000000002   1.2000000000000002   0                    0                      34                           4                          6                    0.0046214387952166567  5.1220183650002581e-17  0.00012327987170782619
# Table End
