# ODT 1.0
# Table Start
# Title: mmArchive Data Table, Fri Apr 15 01:41:06 EDT 2016
# Columns: {Oxs_RungeKuttaEvolve::Total energy} {Oxs_RungeKuttaEvolve::Energy calc count} {Oxs_RungeKuttaEvolve::Max dm/dt} Oxs_RungeKuttaEvolve::dE/dt {Oxs_RungeKuttaEvolve::Delta E} Oxs_UniformExchange::Energy {Oxs_UniformExchange::Max Spin Ang} {Oxs_UniformExchange::Stage Max Spin Ang} {Oxs_UniformExchange::Run Max Spin Ang} Oxs_Demag::Energy    Oxs_FixedZeeman:leftadj:Energy Oxs_FixedZeeman:rightadj:Energy Oxs_ScriptUZeeman::Energy Oxs_ScriptUZeeman::B Oxs_ScriptUZeeman::Bx Oxs_ScriptUZeeman::By Oxs_ScriptUZeeman::Bz Oxs_TimeDriver::Iteration {Oxs_TimeDriver::Stage iteration} Oxs_TimeDriver::Stage Oxs_TimeDriver::mx   Oxs_TimeDriver::my   Oxs_TimeDriver::mz   {Oxs_TimeDriver::Last time step} {Oxs_TimeDriver::Simulation time}
# Units:                    J                                      {}                                  deg/ns                           J/s                            J                             J                              deg                                    deg                                      deg                           J                          J                               J                            J                      mT                   mT                    mT                    mT                      {}                            {}                          {}                   {}                   {}                   {}                          s                                 s                
                    3.1318010809017848e-19                    1                                     0                              0                             0                             1.6352242700998748e-19             12.263514284052516                     12.263514284052516                       12.263514284052516             3.7630303249527778e-19      -1.1193142979160668e-19           -1.1471392162348007e-19          0                       0                    0                     0                     0                       0                             0                           0                    -0.66760559896478178  0.02872571388033749  7.2671200548869906e-12        0                                0                         
                    3.1348905834080922e-19                    7                                     0                              1.2352348736360764e-10           3.0895025063244383e-22           1.6352251736254178e-19             12.263525781650163                     12.263525781650163                       12.263525781650163             3.7630305831352044e-19      -1.1193142983224785e-19           -1.1471392162242021e-19          3.088341194150266e-22     0.0061679954283549998  0.0061679954283549998   0                     0                       1                             1                           0                    -0.66760559515609874  0.02872571388804496  5.1980063417355497e-08        4.9999999999999997e-12              4.9999999999999997e-12       
                    3.1348905834080922e-19                    8                                     0                              1.2352348736360764e-10           0                             1.6352251736254178e-19             12.263525781650163                     12.263525781650163                       12.263525781650163             3.7630305831352044e-19      -1.1193142983224785e-19           -1.1471392162242021e-19          3.088341194150266e-22     0.0061679954283549998  0.0061679954283549998   0                     0                       2                             0                           1                    -0.66760559515609874  0.02872571388804496  5.1980063417355497e-08        0                                4.9999999999999997e-12       
                    4.1327175386873381e-16                    14                                    0                              2.4488246585210042e-10           4.1295826481039302e-16           4.1006734725070907e-16             168.99581076457969                     168.99581076457969                       168.99581076457969             3.3572778293805398e-18      -7.5667691531454051e-20           -7.8428335128158659e-20          1.2248153038597066e-21     0.024665894646605513  0.024665894646605513   0                     0                       3                             1                           1                    -0.6620830483591158   0.023202202206095254  5.8303525331114947e-05        4.9999999999999997e-12              9.9999999999999994e-12       
                    4.1327175386873381e-16                    15                                    0                              2.4488246585210042e-10           0                             4.1006734725070907e-16             168.99581076457969                     168.99581076457969                       168.99581076457969             3.3572778293805398e-18      -7.5667691531454051e-20           -7.8428335128158659e-20          1.2248153038597066e-21     0.024665894646605513  0.024665894646605513   0                     0                       4                             0                           2                    -0.6620830483591158   0.023202202206095254  5.8303525331114947e-05        0                                9.9999999999999994e-12       
                    1.1078187860746032e-15                    21                                    0                              7.9085039872328965e-11           6.9454703220586942e-16           1.0919209323102926e-15             179.9543936145356                      179.9543936145356                        179.9543936145356              1.6000478761374124e-17      -5.1291634290248091e-20           -5.1926940015171264e-20          5.9357724204556264e-22     0.055475442461500046  0.055475442461500046   0                     0                       5                             1                           2                    -0.14266426505325674  0.0058974032710041044 -0.001641095010170706        4.9999999999999997e-12              1.5e-11                   
                    1.1078187860746032e-15                    22                                    0                              7.9085039872328965e-11           0                             1.0919209323102926e-15             179.9543936145356                      179.9543936145356                        179.9543936145356              1.6000478761374124e-17      -5.1291634290248091e-20           -5.1926940015171264e-20          5.9357724204556264e-22     0.055475442461500046  0.055475442461500046   0                     0                       6                             0                           3                    -0.14266426505325674  0.0058974032710041044 -0.001641095010170706        0                                1.5e-11                   
                    9.6299743935878283e-16                    28                                    0                              4.5647833319287989e-11          -1.4482134671582025e-16           9.4653985369957721e-16             179.72377876855558                     179.9543936145356                        179.9543936145356              1.6554007298633219e-17      -4.8269386504063836e-20           -4.860933290810942e-20          4.5707998470957199e-22     0.098566233569026565  0.098566233569026565   0                     0                       7                             1                           3                    -0.061830502956772712  0.00062731962039995048 -0.00067431043116443121        4.9999999999999997e-12              1.9999999999999999e-11       
                    9.6299743935878283e-16                    29                                    0                              4.5647833319287989e-11           0                             9.4653985369957721e-16             179.72377876855558                     179.72377876855558                       179.9543936145356              1.6554007298633219e-17      -4.8269386504063836e-20           -4.860933290810942e-20          4.5707998470957199e-22     0.098566233569026565  0.098566233569026565   0                     0                       8                             0                           4                    -0.061830502956772712  0.00062731962039995048 -0.00067431043116443121        0                                1.9999999999999999e-11       
                    1.0237081769577997e-15                    35                                    0                              2.6431481063214469e-11           6.0710737599016398e-17           1.0083293081621058e-15             179.49190867989611                     179.72377876855558                       179.9543936145356              1.5465987943521569e-17      -4.3913294266381916e-20           -4.3536928099634169e-20          3.310745381328449e-22     0.15389574256077787  0.15389574256077787   0                     0                       9                             1                           4                    -0.028683881059030848 -0.0010047893324110844 -0.003432419004045529        4.9999999999999997e-12              2.4999999999999998e-11       
                    1.0237081769577997e-15                    36                                    0                              2.6431481063214469e-11           0                             1.0083293081621058e-15             179.49190867989611                     179.49190867989611                       179.9543936145356              1.5465987943521569e-17      -4.3913294266381916e-20           -4.3536928099634169e-20          3.310745381328449e-22     0.15389574256077787  0.15389574256077787   0                     0                       10                            0                           5                    -0.028683881059030848 -0.0010047893324110844 -0.003432419004045529        0                                2.4999999999999998e-11       
                    1.0463441632506915e-15                    42                                    0                              1.4408258341565821e-11           2.2635986292892064e-17           1.0327669688548076e-15             179.60708547275618                     179.60708547275618                       179.9543936145356              1.3668203511199951e-17      -4.7284681952056261e-20           -4.3941199438116089e-20          2.1676607413483789e-22     0.22140936589139099  0.22140936589139099   0                     0                       11                            1                           5                    -0.013053713017793383 -0.0014480772958260825  0.0013963963462133337        4.9999999999999997e-12              3e-11                     
                    1.0463441632506915e-15                    43                                    0                              1.4408258341565821e-11           0                             1.0327669688548076e-15             179.60708547275618                     179.60708547275618                       179.9543936145356              1.3668203511199951e-17      -4.7284681952056261e-20           -4.3941199438116089e-20          2.1676607413483789e-22     0.22140936589139099  0.22140936589139099   0                     0                       12                            0                           6                    -0.013053713017793383 -0.0014480772958260825  0.0013963963462133337        0                                3e-11                     
                    1.0283909160564634e-15                    49                                    0                              1.8053547214658097e-12          -1.7953247194228008e-17           1.0158311510750484e-15             179.30209274697086                     179.60708547275618                       179.9543936145356              1.2645963242955038e-17      -4.4722029999951628e-20           -4.1507953191847679e-20          3.1721651849774028e-23     0.30104047576565707  0.30104047576565707   0                     0                       13                            1                           6                    -0.0014049783734936384  0.0030083791234053669  0.0020151578857483029        4.9999999999999997e-12              3.5000000000000002e-11       
                    1.0283909160564634e-15                    50                                    0                              1.8053547214658097e-12           0                             1.0158311510750484e-15             179.30209274697086                     179.30209274697086                       179.9543936145356              1.2645963242955038e-17      -4.4722029999951628e-20           -4.1507953191847679e-20          3.1721651849774028e-23     0.30104047576565707  0.30104047576565707   0                     0                       14                            0                           7                    -0.0014049783734936384  0.0030083791234053669  0.0020151578857483029        0                                3.5000000000000002e-11       
                    1.0291834760997883e-15                    56                                    0                              5.3775936775237091e-12           7.9256004332488447e-19           1.0166091059396703e-15             179.41065412335911                     179.41065412335911                       179.9543936145356              1.2657486636195854e-17      -4.3387833429265294e-20           -3.983676425153271e-20          1.0812160291389511e-22     0.39271048589211155  0.39271048589211155   0                     0                       15                            1                           7                    -0.0036709520727728293  0.0066845548636252725  0.00012380167966338239        4.9999999999999997e-12              4.0000000000000004e-11       
                    1.0291834760997883e-15                    57                                    0                              5.3775936775237091e-12           0                             1.0166091059396703e-15             179.41065412335911                     179.41065412335911                       179.9543936145356              1.2657486636195854e-17      -4.3387833429265294e-20           -3.983676425153271e-20          1.0812160291389511e-22     0.39271048589211155  0.39271048589211155   0                     0                       16                            0                           8                    -0.0036709520727728293  0.0066845548636252725  0.00012380167966338239        0                                4.0000000000000004e-11       
                    1.0334496377878318e-15                    63                                    0                             -1.0425042135089206e-13           4.2661616880434464e-18           1.0209721718724975e-15             179.01545969382471                     179.41065412335911                       179.9543936145356              1.2572228925350405e-17      -4.797071885330445e-20           -4.6789929775868695e-20         -2.3613870009835277e-24     0.49632892903821169  0.49632892903821169   0                     0                       17                            1                           8                     6.3436076704480706e-05  0.0064533868833050768 -3.1626790272095422e-05        4.9999999999999997e-12              4.5000000000000006e-11       
                    1.0334496377878318e-15                    64                                    0                             -1.0425042135089206e-13           0                             1.0209721718724975e-15             179.01545969382471                     179.01545969382471                       179.9543936145356              1.2572228925350405e-17      -4.797071885330445e-20           -4.6789929775868695e-20         -2.3613870009835277e-24     0.49632892903821169  0.49632892903821169   0                     0                       18                            0                           9                     6.3436076704480706e-05  0.0064533868833050768 -3.1626790272095422e-05        0                                4.5000000000000006e-11       
                    1.0289199469245849e-15                    70                                    0                             -9.2540563623460384e-12          -4.5296908632468564e-18           1.0163754750402526e-15             179.39338268696707                     179.39338268696707                       179.9543936145356              1.2636679643841631e-17      -4.7096496051312531e-20           -4.4877990290600138e-20         -2.3327316735463566e-22     0.6117935463105808   0.6117935463105808    0                     0                       19                            1                           9                     0.0050839191044405527  0.0043277861188792304 -0.00067652248734239554        4.9999999999999997e-12              5.0000000000000008e-11       
                    1.0289199469245849e-15                    71                                    0                             -9.2540563623460384e-12           0                             1.0163754750402526e-15             179.39338268696707                     179.39338268696707                       179.9543936145356              1.2636679643841631e-17      -4.7096496051312531e-20           -4.4877990290600138e-20         -2.3327316735463566e-22     0.6117935463105808   0.6117935463105808    0                     0                       20                            0                           10                    0.0050839191044405527  0.0043277861188792304 -0.00067652248734239554        0                                5.0000000000000008e-11       
                    1.0264276641480504e-15                    77                                    0                              5.8842783249861521e-13          -2.492282776534468e-18           1.0138192726026686e-15             179.10317938282063                     179.39338268696707                       179.9543936145356              1.2696467290935457e-17      -4.4346590599331042e-20           -4.3745499704875445e-20          1.6344750595961645e-23     0.73899038807218187  0.73899038807218187   0                     0                       21                            1                           10                   -0.00029490235795174359  0.00087930521875788478 -0.0032245405735601344        4.9999999999999997e-12              5.500000000000001e-11       
                    1.0264276641480504e-15                    78                                    0                              5.8842783249861521e-13           0                             1.0138192726026686e-15             179.10317938282063                     179.10317938282063                       179.9543936145356              1.2696467290935457e-17      -4.4346590599331042e-20           -4.3745499704875445e-20          1.6344750595961645e-23     0.73899038807218187  0.73899038807218187   0                     0                       22                            0                           11                   -0.00029490235795174359  0.00087930521875788478 -0.0032245405735601344        0                                5.500000000000001e-11       
                    1.0347691421130511e-15                    84                                    0                              6.2690290813891785e-12           8.3414779650006697e-18           1.0222686988770782e-15             179.47387631087122                     179.47387631087122                       179.9543936145356              1.2586663048724158e-17      -4.0294299011409639e-20           -4.6115844152972904e-20          1.9033041312873444e-22     0.87779392639685827  0.87779392639685827   0                     0                       23                            1                           11                   -0.0028910416960086214  0.0020782640289894777 -0.0025781827317781164        4.9999999999999997e-12              6.0000000000000013e-11       
                    1.0347691421130511e-15                    85                                    0                              6.2690290813891785e-12           0                             1.0222686988770782e-15             179.47387631087122                     179.47387631087122                       179.9543936145356              1.2586663048724158e-17      -4.0294299011409639e-20           -4.6115844152972904e-20          1.9033041312873444e-22     0.87779392639685827  0.87779392639685827   0                     0                       24                            0                           12                   -0.0028910416960086214  0.0020782640289894777 -0.0025781827317781164        0                                6.0000000000000013e-11       
                    1.0326547673526436e-15                    91                                    0                              1.1466164346785937e-11          -2.1143747604075803e-18           1.0202810285806865e-15             179.73786183109482                     179.73786183109482                       179.9543936145356              1.2465242612088678e-17      -4.7089492254228087e-20           -4.479226582306185e-20          3.7791794574014183e-22     1.0280671789502358   1.0280671789502358    0                     0                       25                            1                           12                   -0.0049013391793589992 -0.0018590975633194923 -0.0022961744589693862        4.9999999999999997e-12              6.5000000000000008e-11       
                    1.0326547673526436e-15                    92                                    0                              1.1466164346785937e-11           0                             1.0202810285806865e-15             179.73786183109482                     179.73786183109482                       179.9543936145356              1.2465242612088678e-17      -4.7089492254228087e-20           -4.479226582306185e-20          3.7791794574014183e-22     1.0280671789502358   1.0280671789502358    0                     0                       26                            0                           13                   -0.0049013391793589992 -0.0018590975633194923 -0.0022961744589693862        0                                6.5000000000000008e-11       
                    1.0348023754525882e-15                    98                                    0                              4.6690461768849835e-12           2.1476080999443822e-18           1.0222799744921242e-15             179.10379537456092                     179.73786183109482                       179.9543936145356              1.2621099468529625e-17      -5.083607325485094e-20           -4.8028537737949305e-20          1.661029269996115e-22     1.1896618441747553   1.1896618441747553    0                     0                       27                            1                           13                   -0.001861626229480734 -0.0017325840528645635 -0.0047613967026607822        4.9999999999999997e-12              7.0000000000000004e-11       
                    1.0348023754525882e-15                    99                                    0                              4.6690461768849835e-12           0                             1.0222799744921242e-15             179.10379537456092                     179.10379537456092                       179.9543936145356              1.2621099468529625e-17      -5.083607325485094e-20           -4.8028537737949305e-20          1.661029269996115e-22     1.1896618441747553   1.1896618441747553    0                     0                       28                            0                           14                   -0.001861626229480734 -0.0017325840528645635 -0.0047613967026607822        0                                7.0000000000000004e-11       
                    1.0333940272108362e-15                    105                                   0                              5.2596631422398059e-12          -1.4083482417515956e-18           1.0209472843987999e-15             178.85815380863141                     179.10379537456092                       179.9543936145356              1.2542370384408226e-17      -4.7751796546113997e-20           -4.8076746088166094e-20          2.0097026247586003e-22     1.3624184476454013   1.3624184476454013    0                     0                       29                            1                           14                   -0.0019667991902995634  0.001796570063131305  0.00021853236166517628        4.9999999999999997e-12              7.5e-11                   
                    1.0333940272108362e-15                    106                                   0                              5.2596631422398059e-12           0                             1.0209472843987999e-15             178.85815380863141                     178.85815380863141                       179.9543936145356              1.2542370384408226e-17      -4.7751796546113997e-20           -4.8076746088166094e-20          2.0097026247586003e-22     1.3624184476454013   1.3624184476454013    0                     0                       30                            0                           15                   -0.0019667991902995634  0.001796570063131305  0.00021853236166517628        0                                7.5e-11                   
                    1.0334246927355857e-15                    112                                   0                             -1.7292008431094526e-12           3.0665524749277372e-20           1.0209924272076758e-15             179.36539910966241                     179.36539910966241                       179.9543936145356              1.2523454493721976e-17      -4.6041650299974064e-20           -4.5076653372955284e-20         -7.0662139204180666e-23     1.5461664994517039   1.5461664994517039    0                     0                       31                            1                           15                    0.00060935342758353897 -0.00060791469578793105  0.002014793348311672        4.9999999999999997e-12              7.9999999999999995e-11       
                    1.0334246927355857e-15                    113                                   0                             -1.7292008431094526e-12           0                             1.0209924272076758e-15             179.36539910966241                     179.36539910966241                       179.9543936145356              1.2523454493721976e-17      -4.6041650299974064e-20           -4.5076653372955284e-20         -7.0662139204180666e-23     1.5461664994517039   1.5461664994517039    0                     0                       32                            0                           16                    0.00060935342758353897 -0.00060791469578793105  0.002014793348311672        0                                7.9999999999999995e-11       
                    1.0360972334169322e-15                    119                                   0                              8.7361874979993554e-12           2.6725406813464538e-18           1.0236203556654081e-15             179.82327633007753                     179.82327633007753                       179.9543936145356              1.2564781440937111e-17      -4.6918584944065276e-20           -4.1365476897509825e-20          3.8037242850115563e-22     1.7407246624507045   1.7407246624507045    0                     0                       33                            1                           16                   -0.0029135178523151729 -0.0023419896547605987  0.0041755470137465655        4.9999999999999997e-12              8.4999999999999991e-11       
                    1.0360972334169322e-15                    120                                   0                              8.7361874979993554e-12           0                             1.0236203556654081e-15             179.82327633007753                     179.82327633007753                       179.9543936145356              1.2564781440937111e-17      -4.6918584944065276e-20           -4.1365476897509825e-20          3.8037242850115563e-22     1.7407246624507045   1.7407246624507045    0                     0                       34                            0                           17                   -0.0029135178523151729 -0.0023419896547605987  0.0041755470137465655        0                                8.4999999999999991e-11       
# Table End
