# ODT 1.0
# Table Start
# Title: mmArchive Data Table, Fri Apr 15 01:41:05 EDT 2016
# Columns: {Oxs_RungeKuttaEvolve::Total energy} {Oxs_RungeKuttaEvolve::Energy calc count} {Oxs_RungeKuttaEvolve::Max dm/dt} Oxs_RungeKuttaEvolve::dE/dt {Oxs_RungeKuttaEvolve::Delta E} Oxs_UniformExchange::Energy {Oxs_UniformExchange::Max Spin Ang} {Oxs_UniformExchange::Stage Max Spin Ang} {Oxs_UniformExchange::Run Max Spin Ang} Oxs_Demag::Energy    Oxs_FixedZeeman:leftadj:Energy Oxs_FixedZeeman:rightadj:Energy Oxs_ScriptUZeeman::Energy Oxs_ScriptUZeeman::B Oxs_ScriptUZeeman::Bx Oxs_ScriptUZeeman::By Oxs_ScriptUZeeman::Bz Oxs_TimeDriver::Iteration {Oxs_TimeDriver::Stage iteration} Oxs_TimeDriver::Stage Oxs_TimeDriver::mx   Oxs_TimeDriver::my   Oxs_TimeDriver::mz   {Oxs_TimeDriver::Last time step} {Oxs_TimeDriver::Simulation time}
# Units:                    J                                      {}                                  deg/ns                           J/s                            J                             J                              deg                                    deg                                      deg                           J                          J                               J                            J                      mT                   mT                    mT                    mT                      {}                            {}                          {}                   {}                   {}                   {}                          s                                 s                
                    3.1318144531980733e-19                    1                                     0.00046781241615066841           -3.6862610865305172e-24           0                             1.6352242700998748e-19             12.263514284052516                     12.263514284052516                       12.263514284052516             3.7630436972490663e-19      -1.1193142979160668e-19           -1.1471392162348007e-19          0                       0                    0                     0                     0                       0                             0                           0                    -0.66760559896478178  0.02872571388033749  7.2671200548869906e-12        0                                0                         
                    3.1486837056876288e-19                    19                                    0.33873740227550181            2.8853305533570728e-08           1.6869252489563988e-21           1.6352242699881017e-19             12.263514282606931                     12.263514284052516                       12.263514284052516             3.763043697378067e-19      -1.1193142979275822e-19           -1.1471392162403503e-19          1.686925248939218e-21     0.03369105455263699  0.03369105455263699   0                     0                       1                             1                           0                    -0.66760559891000637  0.028725713880626908  6.6420229365002915e-09        1.1687860494598501e-13              1.1687860494598501e-13       
                    3.1909055570008177e-19                    25                                    1.1867144052127019             5.3910584354016334e-08           4.2221851313177992e-21           1.6352242697361239e-19             12.263514280624085                     12.263514284052516                       12.263514284052516             3.7630436977004484e-19      -1.1193142979789547e-19           -1.1471392162521146e-19          5.9091103795314351e-21     0.11801599412184366  0.11801599412184366   0                     0                       2                             2                           0                    -0.6676055985463144   0.028725713880837677  4.3546773216373306e-08        1.0199472320871426e-13              2.1887332815469927e-13       
                    3.5571137547836893e-19                    31                                    8.5536045381298429             1.424891351610462e-07           3.6620819778289013e-20           1.6352242678324558e-19             12.263514646880076                     12.263514646880076                       12.263514646880076             3.7630437038039193e-19      -1.1193142993209136e-19           -1.1471392162977593e-19          4.2529929876598676e-20     0.84940231633402052  0.84940231633402052   0                     0                       3                             3                           0                    -0.66760558663814973  0.02872571386687298  8.4816789641709617e-07        3.7122901520320424e-13              5.9010234335790348e-13       
                    4.8661260440656273e-19                    37                                    35.020195713058925             2.7171837560460892e-07           1.3090122892819393e-19           1.6352242638874242e-19             12.263525789410521                     12.263525789410521                       12.263525789410521             3.7630439249791051e-19      -1.1193143155203434e-19           -1.1471392158354757e-19          1.7343113865549172e-19     3.4637452990626136   3.4637452990626136    0                     0                       4                             4                           0                    -0.66760543354588631  0.028725712934443152  7.2225783909647941e-06        6.2394035190625627e-13              1.2140426952641599e-12       
                    4.8661260440656273e-19                    38                                    35.020195713058925             2.7171837560460892e-07           0                             1.6352242638874242e-19             12.263525789410521                     12.263525789410521                       12.263525789410521             3.7630439249791051e-19      -1.1193143155203434e-19           -1.1471392158354757e-19          1.7343113865549172e-19     3.4637452990626136   3.4637452990626136    0                     0                       5                             0                           1                    -0.66760543354588631  0.028725712934443152  7.2225783909647941e-06        0                                1.2140426952641599e-12       
                    8.3348212702801328e-19                    44                                    106.26030522038759             3.8761542188838498e-07           3.4686952262144756e-19           1.6352242808532088e-19             12.263633891015928                     12.263633891015928                       12.263633891015928             3.7630506641464348e-19      -1.1193144604639157e-19           -1.1471392100962315e-19          5.202999995840634e-19     10.391388932125279   10.391388932125279    0                     0                       6                             1                           1                    -0.66760404918927774  0.028725683066002771  4.1770757767832384e-05        1.0161907259469146e-12              2.2302334212110744e-12       
                    9.7295229785246289e-19                    68                                    135.41321446880963             3.9267316184064972e-07           1.3947017082445067e-19           1.6352243142965945e-19             12.263707967776634                     12.263707967776634                       12.263707967776634             3.7630594046653783e-19      -1.119314577327609e-19           -1.1471392055082629e-19          6.5976930423985287e-19     13.176880469718549   13.176880469718549    0                     0                       7                             2                           1                    -0.6676029335431336   0.028725644064690838  6.2953360092593471e-05        3.5599185125701978e-13              2.5862252724680943e-12       
                    1.1507041259768997e-18                    74                                    173.16014783188911             3.7008238911790352e-07           1.7775182812443498e-19           1.6352244174072949e-19             12.263823738655587                     12.263823738655587                       12.263823738655587             3.7630814761060961e-19      -1.1193148052055257e-19           -1.1471391964984092e-19          8.3751893679595423e-19     16.726942005386011   16.726942005386011    0                     0                       8                             3                           1                    -0.667600757728674    0.028725545188903513  9.793859413746405e-05        4.6278940663412568e-13              3.0490146791022197e-12       
                    1.3549130274019163e-18                    80                                    217.87543162968228             2.9389051105088714e-07           2.0420890142502363e-19           1.6352247661203986e-19             12.263996353369269                     12.263996353369269                       12.263996353369269             3.7631386993560249e-19      -1.119315266434654e-19           -1.1471391783804488e-19          1.0417221253357845e-18     20.805428646802106   20.805428646802106    0                     0                       9                             4                           1                    -0.66759635543223295  0.028725287527008869  0.00015575005498785356        6.0762255492375559e-13              3.6566372340259752e-12       
                    1.3549130274019163e-18                    81                                    217.87543162968228             2.9389051105088714e-07           0                             1.6352247661203986e-19             12.263996353369269                     12.263996353369269                       12.263996353369269             3.7631386993560249e-19      -1.119315266434654e-19           -1.1471391783804488e-19          1.0417221253357845e-18     20.805428646802106   20.805428646802106    0                     0                       10                            0                           2                    -0.66759635543223295  0.028725287527008869  0.00015575005498785356        0                                3.6566372340259752e-12       
                    1.4400513135053951e-18                    93                                    237.34499015362792             2.3570066508949809e-07           8.5138286103475556e-20           1.6352251202150165e-19             12.264092587934883                     12.264092587934883                       12.264092587934883             3.7631859693895384e-19      -1.1193155958856735e-19           -1.1471391654188033e-19          1.1268556806753872e-18     22.50583463345605    22.50583463345605     0                     0                       11                            1                           2                    -0.66759321099205449  0.028725073728670732  0.00019083184226827336        3.2043773309028057e-13              3.9770749671162557e-12       
                    1.5023682666393297e-18                    99                                    252.32446759137198             1.7137948510215482e-07           6.2316953133938653e-20           1.6352256231276097e-19             12.264185505761223                     12.264185505761223                       12.264185505761223             3.7632437220735932e-19      -1.1193159703597226e-19           -1.1471391505422064e-19          1.1891668442094024e-18     23.750455482034781   23.750455482034781    0                     0                       12                            2                           2                    -0.66758963569290208  0.0287248115833969   0.00022651502450184304        3.0522662556643931e-13              4.282301592682695e-12       
                    1.5446550713707255e-18                    105                                   263.47953395701535             9.9282771999797264e-08           4.2286804731387855e-20           1.6352263529052723e-19             12.264280586055971                     12.264280586055971                       12.264280586055971             3.7633160192089261e-19      -1.1193164165608674e-19           -1.147139132917193e-19          1.2314463891071117e-18     24.595034223670638   24.595034223670638    0                     0                       13                            3                           2                    -0.66758537673806717  0.028724482124216501  0.00026457244699628696        3.1147138712196142e-13              4.5937729798046566e-12       
                    1.5639067365498191e-18                    111                                   270.12923638832876             2.2483453616353036e-08           1.925166517909899e-20           1.6352273659134596e-19             12.264374829636274                     12.264374829636274                       12.264374829636274             3.7634026457642906e-19      -1.1193169354632819e-19           -1.147139112362426e-19          1.2506893401646148e-18     24.979548950415687   24.979548950415687    0                     0                       14                            4                           2                    -0.66758042356822056  0.028724085578579927  0.00030405791182209731        3.1517341344528585e-13              4.908946393249942e-12       
                    1.5639067365498191e-18                    112                                   270.12923638832876             2.2483453616353036e-08           0                             1.6352273659134596e-19             12.264374829636274                     12.264374829636274                       12.264374829636274             3.7634026457642906e-19      -1.1193169354632819e-19           -1.147139112362426e-19          1.2506893401646148e-18     24.979548950415687   24.979548950415687    0                     0                       15                            0                           3                    -0.66758042356822056  0.028724085578579927  0.00030405791182209731        0                                4.908946393249942e-12       
                    1.5649301630902917e-18                    118                                   273.16224639461279            -1.6645733420793962e-12           1.0234265404719487e-21           1.6352287164831003e-19             12.264464040166601                     12.264464040166601                       12.264464040166601             3.7635026972049731e-19      -1.1193175283828758e-19           -1.1471390889122495e-19          1.2517026834509969e-18     25                   25                    0                     0                       16                            1                           3                    -0.66757476450719999  0.028723625204516018  0.00034417201445444731        3.1806258767528559e-13              5.2270089809252278e-12       
                    1.5649296277239387e-18                    124                                   275.92374319218493            -1.6822002241930489e-12          -5.35366350353204e-25           1.635230447011345e-19             12.264543064486169                     12.264543064486169                       12.264543064486169             3.7636155179384876e-19      -1.119318194868484e-19           -1.1471390625610749e-19          1.2516907569719114e-18     25                   25                    0                     0                       17                            2                           3                    -0.66756840371835591  0.028723103156176794  0.00038452073478892086        3.1996155733342225e-13              5.5469705382586499e-12       
                    1.564929084495654e-18                    130                                   278.55728640784383            -1.7017378165815151e-12          -5.4322829423993154e-25           1.6352325853769309e-19             12.264606963254725                     12.264606963254725                       12.264606963254725             3.7637409541780912e-19      -1.1193189341459309e-19           -1.1471390332552028e-19          1.251677527280265e-18     25                   25                    0                     0                       18                            3                           3                    -0.66756134788280841  0.028722519372586609  0.00042500502095365255        3.2109431490947207e-13              5.8680648531681219e-12       
                    1.5649285327216954e-18                    136                                   281.03218076769457            -1.7232077562968494e-12          -5.5177395247127073e-25           1.6352351477062839e-19             12.264652489554599                     12.264652489554599                       12.264652489554599             3.7638791114730941e-19      -1.1193197471453477e-19           -1.1471390011775601e-19          1.2516629816360484e-18     25                   25                    0                     0                       19                            4                           3                    -0.66755359020589311  0.028721872630699922  0.00046562684077111637        3.2224034650536537e-13              6.1903051996734868e-12       
                    1.5649285327216954e-18                    137                                   281.03218076769457            -1.7232077562968494e-12           0                             1.6352351477062839e-19             12.264652489554599                     12.264652489554599                       12.264652489554599             3.7638791114730941e-19      -1.1193197471453477e-19           -1.1471390011775601e-19          1.2516629816360484e-18     25                   25                    0                     0                       20                            0                           4                    -0.66755359020589311  0.028721872630699922  0.00046562684077111637        0                                6.1903051996734868e-12       
                    1.5649279716472722e-18                    143                                   283.33581369827226            -1.7466439944583404e-12          -5.6107442831543404e-25           1.6352381373532073e-19             12.264679726446344                     12.264679726446344                       12.264679726446344             3.7640301306248051e-19      -1.1193206345186329e-19           -1.1471389660997421e-19          1.2516471049113085e-18     25                   25                    0                     0                       21                            1                           4                    -0.66754512261936283  0.028721161556133069  0.00050639217540802983        3.2343115319777001e-13              6.5137363528712566e-12       
                    1.5649274004823082e-18                    149                                   285.47409282933717            -1.7720896528957505e-12          -5.7116496466090705e-25           1.6352415506344909e-19             12.264692386341526                     12.264692386341526                       12.264692386341526             3.7641941760931367e-19      -1.1193215972284885e-19           -1.147138928001269e-19          1.2516298803325214e-18     25                   25                    0                     0                       22                            2                           4                    -0.6675359361773423   0.028720384650437268  0.00054730795928903181        3.2467394901302624e-13              6.8384103018842826e-12       
                    1.5649268184399621e-18                    155                                   287.47480140971362            -1.7995929532303979e-12          -5.8204233867881821e-25           1.6352453845967768e-19             12.264695186163047                     12.264695186163047                       12.264695186163047             3.7643714151139031e-19      -1.1193226363540724e-19           -1.147138886963287e-19          1.25161129080063e-18     25                   25                    0                     0                       23                            3                           4                    -0.66752602176033671  0.028719540343969601  0.00058837908915044027        3.2595227859725676e-13              7.16436258048154e-12       
                    1.564926224779113e-18                    161                                   289.39249510340159            -1.8292026114224129e-12          -5.9366085571343613e-25           1.635249646504838e-19             12.264691246545185                     12.264695186163047                       12.264695186163047             3.7645619888195938e-19      -1.1193237526087977e-19           -1.1471388427939603e-19          1.2515913207869459e-18     25                   25                    0                     0                       24                            4                           4                    -0.66751537108637016  0.028718627075839349  0.00062960546709022445        3.2722632845979526e-13              7.4915889089413355e-12       
                    1.564926224779113e-18                    162                                   289.39249510340159            -1.8292026114224129e-12           0                             1.635249646504838e-19             12.264691246545185                     12.264691246545185                       12.264695186163047             3.7645619888195938e-19      -1.1193237526087977e-19           -1.1471388427939603e-19          1.2515913207869459e-18     25                   25                    0                     0                       25                            0                           5                    -0.66751537108637016  0.028718627075839349  0.00062960546709022445        0                                7.4915889089413355e-12       
                    1.5649256187243473e-18                    168                                   291.31203879516806            -1.860968986764435e-12          -6.0605476381627872e-25           1.6352543661206918e-19             12.264681725470306                     12.264691246545185                       12.264695186163047             3.7647660215973401e-19      -1.11932494702363e-19           -1.1471387955831552e-19          1.2515699542132228e-18     25                   25                    0                     0                       26                            1                           5                    -0.66750397558038732  0.028717643190206775  0.00067098770738730233        3.2850169162023795e-13              7.820090600561574e-12       
                    1.5649249993679028e-18                    174                                   293.34259941688259            -1.8949471450582462e-12          -6.1935644286474387e-25           1.6352596074432989e-19             12.26466581196995                      12.264691246545185                       12.264695186163047             3.764983643537522e-19      -1.1193262206430488e-19           -1.1471387451990336e-19          1.251547170854029e-18     25                   25                    0                     0                       27                            2                           5                    -0.66749182445548261  0.02871658675842477  0.00071253357527700692        3.2983516777987872e-13              8.1499257683414519e-12       
                    1.5649243656919622e-18                    180                                   295.60049448716859            -1.931194396231379e-12          -6.3367594503380782e-25           1.6352654752714884e-19             12.264640433676403                     12.264691246545185                       12.264695186163047             3.7652149821249673e-19      -1.1193275748493481e-19           -1.1471386916175671e-19          1.2515229465990082e-18     25                   25                    0                     0                       28                            3                           5                    -0.66747890485280303  0.028715455574250724  0.00075425589310893523        3.3126696726989265e-13              8.4811927356113448e-12       
                    1.5649237166031183e-18                    186                                   298.19109114168441            -1.9697668095713543e-12          -6.4908883829484459e-25           1.6352721168407288e-19             12.264601697312518                     12.264691246545185                       12.264695186163047             3.7654601504416209e-19      -1.119329011247088e-19           -1.1471386348786815e-19          1.2514972544874601e-18     25                   25                    0                     0                       29                            4                           5                    -0.66746520239331242  0.028714247185685965  0.00079616985282910389        3.3281589073956829e-13              8.8140086263509131e-12       
                    1.5649237166031183e-18                    187                                   298.19109114168441            -1.9697668095713543e-12           0                             1.6352721168407288e-19             12.264601697312518                     12.264601697312518                       12.264695186163047             3.7654601504416209e-19      -1.119329011247088e-19           -1.1471386348786815e-19          1.2514972544874601e-18     25                   25                    0                     0                       30                            0                           6                    -0.66746520239331242  0.028714247185685965  0.00079616985282910389        0                                8.8140086263509131e-12       
                    1.564923050986875e-18                    193                                   301.19837026117364            -2.0107137584874226e-12          -6.6561624647103836e-25           1.6352797192328446e-19             12.264547522449478                     12.264601697312518                       12.264695186163047             3.7657192277214737e-19      -1.1193305311911802e-19           -1.1471385747328757e-19          1.2514700668838487e-18     25                   25                    0                     0                       31                            1                           6                    -0.66745070233804926  0.028712958983293325  0.00083828937583263247        3.3447169014423197e-13              9.148480316495145e-12       
                    1.5649223676864129e-18                    199                                   304.68293405587508            -2.0540768749139788e-12          -6.8330045967818517e-25           1.6352885040462102e-19             12.264478821413244                     12.264601697312518                       12.264695186163047             3.7659922726183606e-19      -1.1193321364747172e-19           -1.1471385112867231e-19          1.2514413547960997e-18     25                   25                    0                     0                       32                            2                           6                    -0.66743538922458967  0.028711588156903826  0.00088062857675090956        3.3623560491083324e-13              9.4847159214059779e-12       
                    1.5649216653846745e-18                    205                                   308.68524630695856            -2.0998966439387974e-12          -7.0230173909338696e-25           1.6352987222404693e-19             12.264398956629975                     12.264601697312518                       12.264695186163047             3.7662793775862545e-19      -1.1193338290119986e-19           -1.1471384444032798e-19          1.25141108274353e-18     25                   25                    0                     0                       33                            3                           6                    -0.66741924412988407  0.028710131437237867  0.00092320889241263968        3.3816542659487914e-13              9.8228813480008569e-12       
                    1.5649209426037049e-18                    211                                   313.22724418873116            -2.1482134930383383e-12          -7.2278096819084696e-25           1.6353106482409407e-19             12.264312238676377                     12.264601697312518                       12.264695186163047             3.766580681722625e-19      -1.1193356111123567e-19           -1.1471383739183396e-19          1.2513792081104181e-18     25                   25                    0                     0                       34                            4                           6                    -0.6674022443255595   0.028708585045571153  0.0009660583736007507        3.4031334778651013e-13              1.0163194695787367e-11       
# Table End
