# ODT 1.0
# Table Start
# Title: mmArchive Data Table, Wed Jun 11 23:39:33 EDT 2014
# Columns: {Oxs_RungeKuttaEvolve::Total energy} {Oxs_RungeKuttaEvolve::Energy calc count} {Oxs_RungeKuttaEvolve::Max dm/dt} Oxs_RungeKuttaEvolve::dE/dt {Oxs_RungeKuttaEvolve::Delta E} Oxs_UniformExchange::Energy {Oxs_UniformExchange::Max Spin Ang} {Oxs_UniformExchange::Stage Max Spin Ang} {Oxs_UniformExchange::Run Max Spin Ang} Oxs_Demag::Energy    Oxs_FixedZeeman:leftadj:Energy Oxs_FixedZeeman:rightadj:Energy Oxs_ScriptUZeeman::Energy Oxs_ScriptUZeeman::B Oxs_ScriptUZeeman::Bx Oxs_ScriptUZeeman::By Oxs_ScriptUZeeman::Bz Oxs_TimeDriver::Iteration {Oxs_TimeDriver::Stage iteration} Oxs_TimeDriver::Stage Oxs_TimeDriver::mx   Oxs_TimeDriver::my   Oxs_TimeDriver::mz   {Oxs_TimeDriver::Last time step} {Oxs_TimeDriver::Simulation time}
# Units:                    J                                      {}                                  deg/ns                           J/s                            J                             J                              deg                                    deg                                      deg                           J                          J                               J                            J                      mT                   mT                    mT                    mT                      {}                            {}                          {}                   {}                   {}                   {}                          s                                 s                
                    3.1318144531991095e-19                    1                                     0.00046781242879429707           -3.6862612291258997e-24           0                             1.6352242700998748e-19             12.263514284052516                     12.263514284052516                       12.263514284052516             3.763043697250102e-19      -1.1193142979160666e-19           -1.1471392162348007e-19          0                       0                    0                     0                     0                       0                             0                           0                    -0.66760559896478577  0.028725713880337567  7.2671200247286139e-12        0                                0                         
                    3.1486837036066341e-19                    19                                    0.33873736047522746            2.8853303755404858e-08           1.6869250407524574e-21           1.6352242699881017e-19             12.263514282606931                     12.263514284052516                       12.263514284052516             3.7630436973791118e-19      -1.1193142979275822e-19           -1.1471392162403503e-19          1.6869250407352865e-21     0.033691050394414612  0.033691050394414612   0                     0                       1                             1                           0                    -0.6676055989100097   0.028725713880626967  6.642021707749475e-09        1.1687859773003667e-13              1.1687859773003667e-13       
                    3.1909055617007305e-19                    25                                    1.1867144996133756             5.3910586487313744e-08           4.2221858094096275e-21           1.6352242697361241e-19             12.263514280624083                     12.263514284052516                       12.263514284052516             3.7630436977014827e-19      -1.1193142979789545e-19           -1.1471392162521146e-19          5.9091108494192805e-21     0.11801600350638404  0.11801600350638404   0                     0                       2                             2                           0                    -0.66760559854631685  0.028725713880837764  4.3546778414288322e-08        1.019947391407224e-13              2.1887333687075907e-13       
                    3.5571145887076478e-19                    31                                    8.5536213327300707             1.4248926994339835e-07           3.6620902700691729e-20           1.6352242678324522e-19             12.263514646881994                     12.263514646881994                       12.263514646881994             3.7630437038049997e-19      -1.1193142993209181e-19           -1.1471392162977593e-19          4.2530013268887312e-20     0.8494039818341973   0.8494039818341973    0                     0                       3                             3                           0                    -0.66760558663810809  0.028725713866872789  8.4817040833388991e-07        3.712295917405467e-13              5.9010292861130582e-13       
                    4.866128156813048e-19                    37                                    35.020238623902237             2.7171851449005595e-07           1.3090135681053999e-19           1.6352242638874208e-19             12.263525789442385                     12.263525789442385                       12.263525789442385             3.7630439249809694e-19      -1.1193143155203839e-19           -1.147139215835474e-19          1.7343134993005154e-19     3.463749518614061    3.463749518614061     0                     0                       4                             4                           0                    -0.66760543354549906  0.028725712934439658  7.2225919978475765e-06        6.2394054420270587e-13              1.2140434728140116e-12       
                    4.866128156813048e-19                    38                                    35.020238623902237             2.7171851449005595e-07           0                             1.6352242638874208e-19             12.263525789442385                     12.263525789442385                       12.263525789442385             3.7630439249809694e-19      -1.1193143155203839e-19           -1.147139215835474e-19          1.7343134993005154e-19     3.463749518614061    3.463749518614061     0                     0                       5                             0                           1                    -0.66760543354549906  0.028725712934439658  7.2225919978475765e-06        0                                1.2140434728140116e-12       
                    8.3348258435270651e-19                    44                                    106.26040027240424             3.8761547106280448e-07           3.4686976867140176e-19           1.6352242808532784e-19             12.263633891224128                     12.263633891224128                       12.263633891224128             3.7630506641679089e-19      -1.1193144604642308e-19           -1.1471392100962189e-19          5.2030045690663281e-19     10.391398065781022   10.391398065781022    0                     0                       6                             1                           1                    -0.66760404918626859  0.028725683065911702  4.1770819693696892e-05        1.016191128238049e-12              2.2302346010520608e-12       
                    9.7295264694065996e-19                    68                                    135.41328786927815             3.9267314994340748e-07           1.3947006258795348e-19           1.6352243142967143e-19             12.263707967985464                     12.263707967985464                       12.263707967985464             3.7630594046957117e-19      -1.1193145773279588e-19           -1.1471392055082489e-19          6.5976965332503817e-19     13.176887441696884   13.176887441696884    0                     0                       7                             2                           1                    -0.66760293353979383  0.028725644064559921  6.2953419255253268e-05        3.5599156042025622e-13              2.5862261614723167e-12       
                    1.1507043150581637e-18                    74                                    173.16018846873155             3.7008234642713561e-07           1.777516681175037e-19           1.6352244174074642e-19             12.263823738784167                     12.263823738784167                       12.263823738784167             3.7630814761402284e-19      -1.1193148052058315e-19           -1.1471391964983971e-19          8.3751912587381731e-19     16.726945781725437   16.726945781725437    0                     0                       8                             3                           1                    -0.66760075772575733  0.028725545188755124  9.7938637292847803e-05        4.6278902854633304e-13              3.0490151900186498e-12       
                    1.3549130338855838e-18                    80                                    217.87543190296032             2.9389050742898236e-07           2.0420871882742014e-19           1.6352247661204041e-19             12.263996353102016                     12.263996353102016                       12.263996353102016             3.7631386993598782e-19      -1.1193152664346747e-19           -1.1471391783804481e-19          1.0417221318190679e-18     20.805428776293223   20.805428776293223    0                     0                       9                             4                           1                    -0.66759635543203966  0.028725287526996154  0.00015575005730518264        6.0762206606846713e-13              3.6566372560871172e-12       
                    1.3549130338855838e-18                    81                                    217.87543190296032             2.9389050742898236e-07           0                             1.6352247661204041e-19             12.263996353102016                     12.263996353102016                       12.263996353102016             3.7631386993598782e-19      -1.1193152664346747e-19           -1.1471391783804481e-19          1.0417221318190679e-18     20.805428776293223   20.805428776293223    0                     0                       10                            0                           2                    -0.66759635543203966  0.028725287526996154  0.00015575005730518264        0                                3.6566372560871172e-12       
                    1.4400514178195446e-18                    93                                    237.3450158976907              2.3570057755526549e-07           8.5138383933960725e-20           1.635225120215604e-19             12.26409258841549                      12.26409258841549                        12.26409258841549              3.7631859694651061e-19      -1.1193155958861726e-19           -1.1471391654187835e-19          1.1268557849819692e-18     22.50583671685304    22.50583671685304     0                     0                       11                            1                           2                    -0.66759321098729074  0.028725073728333102  0.0001908318925481397        3.2043815359922878e-13              3.977075409686346e-12       
                    1.5023684104028231e-18                    99                                    252.32450239379989             1.713792985511185e-07           6.2316992583278503e-20           1.6352256231292441e-19             12.264185505723113                     12.264185505723113                       12.264185505723113             3.7632437222511076e-19      -1.1193159703608363e-19           -1.1471391505421623e-19          1.1891669879550877e-18     23.75045835335192    23.75045835335192     0                     0                       12                            2                           2                    -0.66758963568227137  0.028724811582594441  0.00022651512506037015        3.0522702185674957e-13              4.2823024315430954e-12       
                    1.5446551972226392e-18                    105                                   263.47957061220126             9.9282468941834283e-08           4.2286786819816143e-20           1.6352263529087423e-19             12.264280586575126                     12.264280586575126                       12.264280586575126             3.7633160195316282e-19      -1.1193164165628172e-19           -1.1471391329171158e-19          1.2314465149265954e-18     24.595036737283152   24.595036737283152    0                     0                       13                            3                           2                    -0.66758537671945217  0.02872448212274771  0.00026457260433076482        3.1147181587328643e-13              4.5937742474163819e-12       
                    1.5639067749939987e-18                    111                                   270.1292598782573              2.2483031827473388e-08           1.9251577771359472e-20           1.6352273659197784e-19             12.264374830213624                     12.264374830213624                       12.264374830213624             3.7634026462703167e-19      -1.1193169354662824e-19           -1.147139112362307e-19          1.2506893785578482e-18     24.97954971830098    24.97954971830098     0                     0                       14                            4                           2                    -0.66758042353957781  0.028724085576262832  0.00030405812733320708        3.1517385573254745e-13              4.9089481031489297e-12       
                    1.5639067749939987e-18                    112                                   270.1292598782573              2.2483031827473388e-08           0                             1.6352273659197784e-19             12.264374830213624                     12.264374830213624                       12.264374830213624             3.7634026462703167e-19      -1.1193169354662824e-19           -1.147139112362307e-19          1.2506893785578482e-18     24.97954971830098    24.97954971830098     0                     0                       15                            0                           3                    -0.66758042353957781  0.028724085576262832  0.00030405812733320708        0                                4.9089481031489297e-12       
                    1.5649301630867709e-18                    118                                   273.16226426118425            -1.6645734549231599e-12           1.0233880927722235e-21           1.6352287164935018e-19             12.264464040485656                     12.264464040485656                       12.264464040485656             3.7635026979286841e-19      -1.1193175283871521e-19           -1.1471390889120805e-19          1.2517026833744755e-18     25.000000000000004   25.000000000000004    0                     0                       16                            1                           3                    -0.66757476446638686  0.028723625201181862  0.00034417228767500693        3.1806304482715369e-13              5.2270111479760831e-12       
                    1.5649296277195922e-18                    124                                   275.92376687663301            -1.6822003767256998e-12          -5.3536717863395035e-25           1.6352304470272065e-19             12.264543065419961                     12.264543065419961                       12.264543065419961             3.7636155189191654e-19      -1.1193181948742645e-19           -1.1471390625608457e-19          1.2516907568684661e-18     25.000000000000004   25.000000000000004    0                     0                       17                            2                           3                    -0.66756840366318182  0.028723103151631162  0.00038452106718166147        3.1996202700433096e-13              5.5469731749804138e-12       
                    1.5649290844904205e-18                    130                                   278.55731009196177            -1.7017380152332182e-12          -5.4322917173843378e-25           1.6352325853997103e-19             12.264606963473655                     12.264606963473655                       12.264606963473655             3.7637409554579073e-19      -1.1193189341534625e-19           -1.147139033254905e-19          1.2516775271454956e-18     25.000000000000004   25.000000000000004    0                     0                       18                            3                           3                    -0.66756134781093079  0.028722519366618068  0.00042500541447955788        3.2109480028240634e-13              5.8680679752628206e-12       
                    1.5649285327155314e-18                    136                                   281.03220801895219            -1.723208008142325e-12          -5.5177488905367317e-25           1.6352351477374548e-19             12.2646524901369                       12.2646524901369                         12.2646524901369               3.7638791130978953e-19      -1.1193197471548969e-19           -1.1471390011771833e-19          1.2516629814652044e-18     25.000000000000004   25.000000000000004    0                     0                       19                            4                           3                    -0.66755359011477566  0.028721872623076929  0.00046562729783670894        3.2224085110820794e-13              6.1903088263710283e-12       
                    1.5649285327155314e-18                    137                                   281.03220801895219            -1.723208008142325e-12           0                             1.6352351477374548e-19             12.2646524901369                       12.2646524901369                         12.2646524901369               3.7638791130978953e-19      -1.1193197471548969e-19           -1.1471390011771833e-19          1.2516629814652044e-18     25.000000000000004   25.000000000000004    0                     0                       20                            0                           4                    -0.66755359011477566  0.028721872623076929  0.00046562729783670894        0                                6.1903088263710283e-12       
                    1.5649279716401048e-18                    143                                   283.33584254507713            -1.746644307013931e-12          -5.6107542672079666e-25           1.6352381373941964e-19             12.264679726707792                     12.264679726707792                       12.264679726707792             3.7640301326424979e-19      -1.1193206345304754e-19           -1.1471389660992732e-19          1.2516471046994102e-18     25.000000000000004   25.000000000000004    0                     0                       21                            1                           4                    -0.66754512250635201  0.028721161546610405  0.00050639269830981778        3.2343167614933946e-13              6.513740502520368e-12       
                    1.5649274004740718e-18                    149                                   285.47412142861873            -1.7720900343566832e-12          -5.7116603294741306e-25           1.6352415506867441e-19             12.264692386250541                     12.264692386250541                       12.264692386250541             3.7641941785551208e-19      -1.1193215972429247e-19           -1.1471389280006984e-19          1.2516298800742476e-18     25.000000000000004   25.000000000000004    0                     0                       22                            2                           4                    -0.6675359360395986   0.02872038463874892  0.00054730855057013997        3.2467449225878822e-13              6.8384149947791561e-12       
                    1.5649268184305871e-18                    155                                   287.47483416564722            -1.7995934124963168e-12          -5.8204348462295782e-25           1.6352453846618816e-19             12.264695186453155                     12.264695186453155                       12.264695186453155             3.7643714180750555e-19      -1.119322636371419e-19           -1.1471388869626011e-19          1.2516112904902955e-18     25.000000000000004   25.000000000000004    0                     0                       23                            3                           4                    -0.66752602159482421  0.028719540329827389  0.00058837975154771283        3.2595284366226985e-13              7.1643678384414261e-12       
                    1.5649262247684988e-18                    161                                   289.39252784299089            -1.829203158170975e-12          -5.9366208842239923e-25           1.6352496465847657e-19             12.264691246108486                     12.264695186453155                       12.264695186453155             3.7645619923384046e-19      -1.1193237526293967e-19           -1.1471388427931456e-19          1.251591320418436e-18     25.000000000000004   25.000000000000004    0                     0                       24                            4                           4                    -0.66751537088983248  0.028718627058930326  0.00062960620358126817        3.2722691724290843e-13              7.4915947556843346e-12       
                    1.5649262247684988e-18                    162                                   289.39252784299089            -1.829203158170975e-12           0                             1.6352496465847657e-19             12.264691246108486                     12.264691246108486                       12.264695186453155             3.7645619923384046e-19      -1.1193237526293967e-19           -1.1471388427931456e-19          1.251591320418436e-18     25.000000000000004   25.000000000000004    0                     0                       25                            0                           5                    -0.66751537088983248  0.028718627058930326  0.00062960620358126817        0                                7.4915947556843346e-12       
                    1.5649256187124058e-18                    168                                   291.31207774734293            -1.8609696314797667e-12          -6.0605609291101168e-25           1.6352543662181583e-19             12.264681725458811                     12.264691246108486                       12.264695186453155             3.7647660257359753e-19      -1.1193249470478481e-19           -1.1471387955821978e-19          1.251569953779997e-18     25.000000000000004   25.000000000000004    0                     0                       26                            1                           5                    -0.6675039753493317   0.028717643170190276  0.0006709885211903222        3.2850230601998561e-13              7.8200970617043194e-12       
                    1.5649249993545313e-18                    174                                   293.34264530150347            -1.8949478988098948e-12          -6.1935787464271458e-25           1.6352596075621492e-19             12.264665811459684                     12.264691246108486                       12.264695186453155             3.7649836483602471e-19      -1.1193262206712683e-19           -1.1471387451979166e-19          1.25154717034921e-18     25.000000000000004   25.000000000000004    0                     0                       27                            2                           5                    -0.66749182418624531  0.028716586734936905  0.00071253446957386841        3.29835807496621e-13              8.1499328692009403e-12       
                    1.5649243656770381e-18                    180                                   295.60054991427916            -1.9311952710231505e-12          -6.3367749314739209e-25           1.6352654754171593e-19             12.264640432846628                     12.264691246108486                       12.264695186453155             3.7652149877002326e-19      -1.1193275748819907e-19           -1.147138691616277e-19          1.2515229460151257e-18     25.000000000000004   25.000000000000004    0                     0                       28                            3                           5                    -0.66747890454140024  0.028715455546889999  0.00075425687150267495        3.3126763563466068e-13              8.4812005048356019e-12       
                    1.5649237165865216e-18                    186                                   298.19116315302972            -1.9697678182936764e-12          -6.4909051654921301e-25           1.6352721170206145e-19             12.264601696363005                     12.264691246108486                       12.264695186453155             3.7654601568420504e-19      -1.119329011284603e-19           -1.1471386348771981e-19          1.2514972538164351e-18     25.000000000000004   25.000000000000004    0                     0                       29                            4                           5                    -0.66746520203543203  0.028714247154011798  0.00079617091928546981        3.3281659061589646e-13              8.8140170954514974e-12       
                    1.5649237165865216e-18                    187                                   298.19116315302972            -1.9697678182936764e-12           0                             1.6352721170206145e-19             12.264601696363005                     12.264601696363005                       12.264695186453155             3.7654601568420504e-19      -1.119329011284603e-19           -1.1471386348771981e-19          1.2514972538164351e-18     25.000000000000004   25.000000000000004    0                     0                       30                            0                           6                    -0.66746520203543203  0.028714247154011798  0.00079617091928546981        0                                8.8140170954514974e-12       
                    1.5649230509684485e-18                    193                                   301.19845787410458            -2.0107149150909567e-12          -6.6561807298537161e-25           1.6352797194566407e-19             12.264547520451554                     12.264601696363005                       12.264695186453155             3.7657192350252289e-19      -1.1193305312340639e-19           -1.1471385747311792e-19          1.2514700661167858e-18     25.000000000000004   25.000000000000004    0                     0                       31                            1                           6                    -0.66745070192895239  0.02871295894681369  0.00083829053489149318        3.3447242606878488e-13              9.1484895215202822e-12       
                    1.5649223676659961e-18                    199                                   304.68304551212105            -2.0540781943121226e-12          -6.833024523721525e-25           1.6352885043261369e-19             12.2644788194754                       12.264601696363005                       12.264695186453155             3.7659922809090822e-19      -1.119332136523516e-19           -1.1471385112847952e-19          1.2514413539233054e-18     25.000000000000004   25.000000000000004    0                     0                       32                            2                           6                    -0.66743538875909614  0.028711588115073274  0.00088062983343756881        3.3623638071019571e-13              9.4847259022304782e-12       
                    1.5649216653620843e-18                    205                                   308.68538212119091            -2.0998981416520764e-12          -7.0230391189935415e-25           1.6352987225913906e-19             12.264398953784514                     12.264601696363005                       12.264695186453155             3.7662793869513146e-19      -1.1193338290672862e-19           -1.1471384444010934e-19          1.2514110817546516e-18     25.000000000000004   25.000000000000004    0                     0                       33                            3                           6                    -0.66741924360248084  0.028710131389462799  0.00092321025191612267        3.3816624353543071e-13              9.82289214576591e-12       
                    1.5649209425787413e-18                    211                                   313.22740799726495            -2.1482151856349116e-12          -7.2278334290530294e-25           1.6353106486805823e-19             12.264312235663381                     12.264601696363005                       12.264695186453155             3.7665806922563356e-19      -1.1193356111747706e-19           -1.1471383739158722e-19          1.2513792069941138e-18     25.000000000000004   25.000000000000004    0                     0                       34                            4                           6                    -0.66740224373019397  0.028708584991190098  0.0009660598416830991        3.4031421038173651e-13              1.0163206356147646e-11       
# Table End
