# ODT 1.0
# Table Start
# Title: mmArchive Data Table, Wed Jun 11 15:42:31 EDT 2014
# Columns: {Oxs_EulerEvolve:evolve:Total energy} {Oxs_EulerEvolve:evolve:Energy calc count} {Oxs_EulerEvolve:evolve:Max dm/dt} Oxs_EulerEvolve:evolve:dE/dt {Oxs_EulerEvolve:evolve:Delta E} Oxs_Demag::Energy    Oxs_TimeDriver::Iteration {Oxs_TimeDriver::Stage iteration} Oxs_TimeDriver::Stage Oxs_TimeDriver::mx   Oxs_TimeDriver::my   Oxs_TimeDriver::mz   {Oxs_TimeDriver::Max Spin Ang} {Oxs_TimeDriver::Stage Max Spin Ang} {Oxs_TimeDriver::Run Max Spin Ang} {Oxs_TimeDriver::Last time step} {Oxs_TimeDriver::Simulation time}
# Units:                     J                                       {}                                   deg/ns                           J/s                             J                         J                       {}                            {}                          {}                   {}                   {}                   {}                        deg                               deg                                 deg                                s                                 s                
                    1.1508797647223251e-19                      1                                      1570.728746817935              -5.3645239308830316e-10            0                          1.1508797647223251e-19    0                             0                           0                     1                    0                    0                         0                                 0                                   0                                 0                                0                         
                    1.1508456101754038e-19                      2                                      1570.6097048500906             -5.362737116741347e-10           -3.4154546921236933e-24        1.1508456101754038e-19    1                             1                           0                     0.99999999999489908  4.4813689796067516e-27 -6.6497733245777612e-27       0.014209724580755145               0.014209724580755145                 0.014209724580755145               6.3664716267901297e-15              6.3664716267901297e-15       
                    1.1508029307513565e-19                      3                                      1570.4610015505066             -5.3605062281566924e-10           -4.267942404728706e-24        1.1508029307513565e-19    2                             2                           0                     0.99999999997418154 -2.3129646346357427e-27  6.360652745248293e-27       0.031968434811033133               0.031968434811033133                 0.031968434811033133               7.9580895334876629e-15              1.4324561160277791e-14       
                    1.1507496029413383e-19                      4                                      1570.2752772905408             -5.357721722297904e-10           -5.3327810018205362e-24        1.1507496029413383e-19    3                             3                           0                     0.99999999992588851  2.3129646346357427e-27  0                         0.054161445250849649               0.054161445250849649                 0.054161445250849649               9.9476119168595783e-15              2.4272173077137369e-14       
                    1.1506829766684972e-19                      5                                      1570.0433637980868             -5.3542474978177648e-10           -6.6626272841084785e-24        1.1506829766684972e-19    4                             4                           0                     0.99999999983055343 -2.3129646346357427e-27 -4.6259292692714854e-27       0.081894318379550371               0.081894318379550371                 0.081894318379550371               1.2434514896074472e-14              3.6706687973211841e-14       
# Table End
