# ODT 1.0
# Table Start
# Title: mmArchive Data Table, Wed Jun 16 19:05:27 EDT 2010
# Columns: {Oxs_RungeKuttaEvolve::Total energy} {Oxs_RungeKuttaEvolve::Energy calc count} {Oxs_RungeKuttaEvolve::Max dm/dt} Oxs_RungeKuttaEvolve::dE/dt {Oxs_RungeKuttaEvolve::Delta E} Oxs_UniformExchange::Energy {Oxs_UniformExchange::Max Spin Ang} {Oxs_UniformExchange::Stage Max Spin Ang} {Oxs_UniformExchange::Run Max Spin Ang} Oxs_Demag::Energy    Oxs_FixedZeeman:leftadj:Energy Oxs_FixedZeeman:rightadj:Energy Oxs_ScriptUZeeman::Energy Oxs_ScriptUZeeman::B Oxs_ScriptUZeeman::Bx Oxs_ScriptUZeeman::By Oxs_ScriptUZeeman::Bz Oxs_TimeDriver::Iteration {Oxs_TimeDriver::Stage iteration} Oxs_TimeDriver::Stage Oxs_TimeDriver::mx   Oxs_TimeDriver::my   Oxs_TimeDriver::mz   {Oxs_TimeDriver::Last time step} {Oxs_TimeDriver::Simulation time}
# Units:                    J                                      {}                                  deg/ns                           J/s                            J                             J                              deg                                    deg                                      deg                           J                          J                               J                            J                      mT                   mT                    mT                    mT                      {}                            {}                          {}                   {}                   {}                   {}                          s                                 s                
                    3.1317820499616013e-19                    1                                     0.0011385131938042353           -1.696589623913016e-23           0                             1.6352242700998748e-19             12.263514284052487                     12.263514284052487                       12.263514284052487             3.7630112940125938e-19      -1.1193142979160666e-19           -1.1471392162348007e-19          0                       0                    0                     0                     0                       0                             0                           0                    -0.66760559896478577  0.028725713880337567  7.2671200247286139e-12        0                                0                         
                    3.1566430245473607e-19                    19                                    0.49925101550534784            3.5016107219852614e-08           2.4860974585759448e-21           1.6352242699313171e-19             12.26351427976039                      12.263514284052487                       12.263514284052487             3.7630112942022695e-19      -1.119314297931905e-19           -1.1471392162395293e-19          2.486097458520882e-21     0.04965201935105968  0.04965201935105968   0                     0                       1                             1                           0                    -0.66760559886280457  0.028725713880315404  1.1879551347740187e-08        1.4190328296680118e-13              1.4190328296680118e-13       
                    3.2206940054250455e-19                    25                                    1.7858486238719278             6.6049978293993303e-08           6.4050980877684583e-21           1.6352242695247846e-19             12.263514274611946                     12.263514284052487                       12.263514284052487             3.7630112947302218e-19      -1.1193142980196328e-19           -1.1471392162484271e-19          8.8911955438098665e-21     0.17757381640888248  0.17757381640888248   0                     0                       2                             2                           0                    -0.66760559813893194  0.028725713879831062  8.0424064545015568e-08        1.2668376159564135e-13              2.685870445624425e-13       
                    3.2206940054250455e-19                    26                                    1.7858486238719278             6.6049978293993303e-08           0                             1.6352242695247846e-19             12.263514274611946                     12.263514274611946                       12.263514284052487             3.7630112947302218e-19      -1.1193142980196328e-19           -1.1471392162484271e-19          8.8911955438098665e-21     0.17757381640888248  0.17757381640888248   0                     0                       3                             0                           1                    -0.66760559813893194  0.028725713879831062  8.0424064545015568e-08        0                                2.685870445624425e-13       
                    3.7075232265445644e-19                    32                                    11.58464453024926              1.6475156628020997e-07           4.8682922111951897e-20           1.6352242669752988e-19             12.263515036321374                     12.263515036321374                       12.263515036321374             3.763011306465185e-19      -1.1193143002125609e-19           -1.1471392162198372e-19          5.7574116953647888e-20     1.1498629105602078   1.1498629105602078    0                     0                       4                             1                           1                    -0.66760557773039841  0.028725713841173308  1.3408726168995616e-06        4.194153716444746e-13              6.880024162069171e-13       
                    5.3457962020338371e-19                    38                                    44.778140532036474             3.0009872877264115e-07           1.6382729754892724e-19           1.6352242629428278e-19             12.263533977682467                     12.263533977682467                       12.263533977682467             3.7630117642791833e-19      -1.1193143258281588e-19           -1.1471392152142018e-19          2.2140137158541864e-19     4.4218015365171146   4.4218015365171146    0                     0                       5                             2                           1                    -0.66760533312645565  0.028725711858381062  1.0554902178640229e-05        6.9366696571618957e-13              1.3816693819231067e-12       
                    5.3457962020338371e-19                    39                                    44.778140532036474             3.0009872877264115e-07           0                             1.6352242629428278e-19             12.263533977682467                     12.263533977682467                       12.263533977682467             3.7630117642791833e-19      -1.1193143258281588e-19           -1.1471392152142018e-19          2.2140137158541864e-19     4.4218015365171146   4.4218015365171146    0                     0                       6                             0                           2                    -0.66760533312645565  0.028725711858381062  1.0554902178640229e-05        0                                1.3816693819231067e-12       
                    9.2710583848007139e-19                    45                                    125.79188277853028             3.9317874029143176e-07           3.9252621827668778e-19           1.6352242965958957e-19             12.26368085277594                      12.26368085277594                        12.26368085277594              3.7630235137921184e-19      -1.1193145336223156e-19           -1.1471392068074153e-19          6.1392643148424319e-19     12.261301251103401   12.261301251103401    0                     0                       7                             1                           2                    -0.66760334694383339  0.028725659600681498  5.5461889942290938e-05        1.0879367020411738e-12              2.4696060839642805e-12       
                    1.1197542404107139e-18                    57                                    166.5297900069618              3.7650301191090519e-07           1.9264840193064238e-19           1.6352243891194817e-19             12.263801940480477                     12.263801940480477                       12.263801940480477             3.7630439908261049e-19      -1.1193147570691281e-19           -1.1471391981987073e-19          8.0657279794293872e-19     16.108874164898779   16.108874164898779    0                     0                       8                             2                           2                    -0.66760121548445217  0.028725567923227665  9.1066634455584382e-05        4.9652550942091906e-13              2.9661315933851995e-12       
                    1.1197542404107139e-18                    58                                    166.5297900069618              3.7650301191090519e-07           0                             1.6352243891194817e-19             12.263801940480477                     12.263801940480477                       12.263801940480477             3.7630439908261049e-19      -1.1193147570691281e-19           -1.1471391981987073e-19          8.0657279794293872e-19     16.108874164898779   16.108874164898779    0                     0                       9                             0                           3                    -0.66760121548445217  0.028725567923227665  9.1066634455584382e-05        0                                2.9661315933851995e-12       
                    1.3048276180597635e-18                    64                                    206.71224334818652             3.1910185260002907e-07           1.8507337764904974e-19           1.6352246429813837e-19             12.263947960023735                     12.263947960023735                       12.263947960023735             3.7630870706637936e-19      -1.1193151213245372e-19           -1.1471391829675931e-19          9.91641877124459e-19     19.805177725798085   19.805177725798085    0                     0                       10                            1                           3                    -0.66759773015164825  0.028725374143942543  0.00013900758647611211        5.2724668375156886e-13              3.4933782771367683e-12       
                    1.397086461313116e-18                    76                                    227.42279958954103             2.6799365422286848e-07           9.2258843253352281e-20           1.6352249219245043e-19             12.264041206349161                     12.264041206349161                       12.264041206349161             3.7631267867680329e-19      -1.1193154125759007e-19           -1.1471391724241972e-19          1.0838967489438719e-18     21.647791769206194   21.647791769206194    0                     0                       11                            2                           3                    -0.6675949587219675   0.028725194798014324  0.0001718308448236826        3.1327366139010071e-13              3.8066519385268688e-12       
                    1.397086461313116e-18                    77                                    227.42279958954103             2.6799365422286848e-07           0                             1.6352249219245043e-19             12.264041206349161                     12.264041206349161                       12.264041206349161             3.7631267867680329e-19      -1.1193154125759007e-19           -1.1471391724241972e-19          1.0838967489438719e-18     21.647791769206194   21.647791769206194    0                     0                       12                            0                           4                    -0.6675949587219675   0.028725194798014324  0.0001718308448236826        0                                3.8066519385268688e-12       
                    1.4676013738551187e-18                    83                                    243.85202965212284             2.1060812687906393e-07           7.0514912542002895e-20           1.6352253142524909e-19             12.26413033158701                      12.26413033158701                        12.26413033158701              3.7631753667125671e-19      -1.1193157400642144e-19           -1.1471391597798025e-19          1.1544067957430146e-18     23.056139688626963   23.056139688626963    0                     0                       13                            1                           4                    -0.66759183531054878  0.028724974711007101  0.00020502655079468734        2.938330730342883e-13              4.1004850115611573e-12       
                    1.5210958700417494e-18                    89                                    257.08313865727001             1.4457341221227706e-07           5.3494496186630575e-20           1.635225886093513e-19             12.264221725148978                     12.264221725148978                       12.264221725148978             3.7632372212651168e-19      -1.1193161315445145e-19           -1.1471391432857198e-19          1.2078950867889097e-18     24.124558376671839   24.124558376671839    0                     0                       14                            2                           4                    -0.66758808896687338  0.02872469349545868  0.00024083638404166045        3.0032911001922762e-13              4.4008141215803849e-12       
                    1.5210958700417494e-18                    90                                    257.08313865727001             1.4457341221227706e-07           0                             1.635225886093513e-19             12.264221725148978                     12.264221725148978                       12.264221725148978             3.7632372212651168e-19      -1.1193161315445145e-19           -1.1471391432857198e-19          1.2078950867889097e-18     24.124558376671839   24.124558376671839    0                     0                       15                            0                           5                    -0.66758808896687338  0.02872469349545868  0.00024083638404166045        0                                4.4008141215803849e-12       
                    1.5542105755446824e-18                    96                                    266.373146813115               7.2459911738827608e-08           3.3114705502933045e-20           1.6352266906785594e-19             12.264314245268118                     12.264314245268118                       12.264314245268118             3.7633126842648321e-19      -1.1193165919458832e-19           -1.1471391259452734e-19          1.241002209839459e-18     24.785949792464923   24.785949792464923    0                     0                       16                            1                           5                    -0.66758370244996945  0.028724349047126625  0.00027843906374604561        3.0422824282973608e-13              4.7050423644101213e-12       
                    1.5649272792824415e-18                    102                                   271.25823479304103            -1.6538779466461652e-12           1.0716703737759092e-20           1.6352277839235514e-19             12.264404910695566                     12.264404910695566                       12.264404910695566             3.7634014363654617e-19      -1.1193171202189312e-19           -1.1471391045847587e-19          1.2517099797339091e-18     25.000000000000004   25.000000000000004    0                     0                       17                            2                           5                    -0.66757865585808485  0.028723942048192428  0.00031710233679953047        3.0734341845736556e-13              5.0123857828674867e-12       
                    1.5649272792824415e-18                    103                                   271.25823479304103            -1.6538779466461652e-12           0                             1.6352277839235514e-19             12.264404910695566                     12.264404910695566                       12.264404910695566             3.7634014363654617e-19      -1.1193171202189312e-19           -1.1471391045847587e-19          1.2517099797339091e-18     25.000000000000004   25.000000000000004    0                     0                       18                            0                           6                    -0.66757865585808485  0.028723942048192428  0.00031710233679953047        0                                5.0123857828674867e-12       
                    1.5649267649397489e-18                    109                                   273.9956890712362             -1.6697045740252925e-12          -5.1434269246835142e-25           1.6352292102213752e-19             12.264488613392762                     12.264488613392762                       12.264488613392762             3.7635024803263531e-19      -1.1193177182583682e-19           -1.1471390808265714e-19          1.2516992757934702e-18     25.000000000000004   25.000000000000004    0                     0                       19                            1                           6                    -0.6675729470898506   0.028723476265944091  0.00035614397010905294        3.0955681898772893e-13              5.321942601855216e-12       
                    1.5649262433239916e-18                    115                                   276.64442849334108            -1.6873317502657587e-12          -5.2161575729084151e-25           1.6352310009399133e-19             12.264561032863655                     12.264561032863655                       12.264561032863655             3.7636154091660083e-19      -1.1193183856725467e-19           -1.1471390552200886e-19          1.2516873464026631e-18     25.000000000000004   25.000000000000004    0                     0                       20                            2                           6                    -0.66756658474808683  0.028722952842983131  0.00039533595177847078        3.1080478672462368e-13              5.632747388579839e-12       
# Table End
