# ODT 1.0
# Table Start
# Title: mmArchive Data Table, Wed Jun 16 18:46:32 EDT 2010
# Columns: {Oxs_EulerEvolve:evolve:Total energy} {Oxs_EulerEvolve:evolve:Energy calc count} {Oxs_EulerEvolve:evolve:Max dm/dt} Oxs_EulerEvolve:evolve:dE/dt {Oxs_EulerEvolve:evolve:Delta E} Oxs_Demag::Energy    Oxs_TimeDriver::Iteration {Oxs_TimeDriver::Stage iteration} Oxs_TimeDriver::Stage Oxs_TimeDriver::mx   Oxs_TimeDriver::my   Oxs_TimeDriver::mz   {Oxs_TimeDriver::Max Spin Ang} {Oxs_TimeDriver::Stage Max Spin Ang} {Oxs_TimeDriver::Run Max Spin Ang} {Oxs_TimeDriver::Last time step} {Oxs_TimeDriver::Simulation time}
# Units:                     J                                       {}                                   deg/ns                           J/s                             J                         J                       {}                            {}                          {}                   {}                   {}                   {}                        deg                               deg                                 deg                                s                                 s                
                    1.1508797648621194e-19                      1                                      1570.7287468178833             -5.3645239308826035e-10            0                          1.1508797648621194e-19    0                             0                           0                     1                    0                    0                         0                                 0                                   0                                 0                                0                         
                    1.1508456103151982e-19                      2                                      1570.609704850039              -5.362737116740919e-10           -3.4154546921235331e-24        1.1508456103151982e-19    1                             1                           0                     0.99999999999489908  4.4813689796067516e-27  9.107298248878237e-27       0.014209724594868562               0.014209724594868562                 0.014209724594868562               6.3664716267903388e-15              6.3664716267903388e-15       
                    1.1508029308911509e-19                      3                                      1570.461001550455              -5.3605062281562654e-10           -4.267942404728504e-24        1.1508029308911509e-19    2                             2                           0                     0.99999999997418154  3.4694469519536144e-27  0                         0.031968434832619096               0.031968434832619096                 0.031968434832619096               7.9580895334879232e-15              1.4324561160278261e-14       
# Table End
