# ODT 1.0
# Table Start
# Title: mmArchive Data Table, Tue May 14 17:57:30 EDT 2019
# Columns: {Oxs_RungeKuttaEvolve:evolve:Total energy} {Oxs_RungeKuttaEvolve:evolve:Energy calc count} {Oxs_RungeKuttaEvolve:evolve:Max dm/dt} Oxs_RungeKuttaEvolve:evolve:dE/dt {Oxs_RungeKuttaEvolve:evolve:Delta E} Oxs_CubicAnisotropy::Energy Oxs_UniformExchange::Energy {Oxs_UniformExchange::Max Spin Ang} {Oxs_UniformExchange::Stage Max Spin Ang} {Oxs_UniformExchange::Run Max Spin Ang} Oxs_UZeeman::Energy  Oxs_UZeeman::B       Oxs_UZeeman::Bx      Oxs_UZeeman::By      Oxs_UZeeman::Bz      FFTW_Demag::Energy   Oxs_TimeDriver::Iteration {Oxs_TimeDriver::Stage iteration} Oxs_TimeDriver::Stage Oxs_TimeDriver::mx   Oxs_TimeDriver::my   Oxs_TimeDriver::mz   {Oxs_TimeDriver::Last time step} {Oxs_TimeDriver::Simulation time}
# Units:                       J                                            {}                                        deg/ns                                 J/s                                  J                                J                           J                              deg                                    deg                                      deg                            J                 mT                   mT                   mT                   mT                     J                       {}                            {}                          {}                   {}                   {}                   {}                          s                                 s                
                       5.0427954329738367e-18                          1                                           1570.9045089494853                  -1.7363966704339998e-08                 0                               -8.9917260260468269e-22         0                               0                                      0                                        0                              0                    0                    0                    0                    0                    5.0436946055764412e-18    0                             0                           0                     0.99975009371094226  0.019995001874219168  0.0099975009371095838        0                                0                         
                       5.0426904737658306e-18                          7                                           1569.776854811051                   -1.7347803040504759e-08                -1.049592080052902e-22             -8.9887749667380165e-22         1.0079171131242495e-25             0.0060962771097295716                    0.0060962771097295716                      0.0060962771097295716            0                    0                    0                    0                    0                    5.0435892504707937e-18    1                             1                           0                     0.99975017577518632  0.019991387989224497  0.009996465290405477        6.0474713427062207e-15              6.0474713427062207e-15       
                       5.0422716129183209e-18                          13                                          1565.2564138976452                  -1.7283314614749465e-08                -4.188608475104093e-22             -8.9773820321763388e-22         2.5118141716531311e-24             0.030411452388649739                    0.030411452388649739                      0.030411452388649739            0                    0                    0                    0                    0                    5.0431668393073667e-18    2                             2                           0                     0.99975049257705439  0.019976936607375862  0.0099923226753787769        2.4189885370824883e-14              3.0237356713531102e-14       
                       5.0406116731657059e-18                          19                                          1554.1859241716863                  -1.7028004081360529e-08                -1.6599397526147286e-21             -8.9383273453524841e-22         4.3748160701978057e-23             0.12653529272306968                    0.12653529272306968                      0.12653529272306968            0                    0                    0                    0                    0                    5.0414617577395393e-18    3                             3                           0                     0.99975157828110417  0.019919197656136069  0.0099757517208758223        9.675954148329953e-14              1.2699689819683062e-13       
                       5.0342129275931002e-18                          25                                          1520.071159230471                   -1.6048043659663168e-08                -6.3987455726054566e-21             -8.8823394215564921e-22         6.8082001190447406e-22             0.49196655850708787                    0.49196655850708787                      0.49196655850708787            0                    0                    0                    0                    0                    5.0344203415233515e-18    4                             4                           0                     0.99975312939182737  0.019689309907261147  0.0099094573231279966        3.8703816593319812e-13              5.1403506413002874e-13       
                      -4.765297292817725e-18                          26                                          1516.2850536452472                  -1.6061855845934424e-08                -9.7995102204108252e-18             -8.8823394215564921e-22         6.8082001190447406e-22             0.49196655850708787                    0.49196655850708787                      0.49196655850708787           -9.7995102204108252e-18  50.002499937503124   50                   0.5                  0                    5.0344203415233515e-18    5                             0                           1                     0.99975312939182737  0.019689309907261147  0.0099094573231279966        0                                5.1403506413002874e-13       
                      -4.7653978751667772e-18                          32                                          1515.6646137714379                  -1.6045833945501877e-08                -1.0058234905220412e-22             -8.8823089435939598e-22         6.9690296768456654e-22             0.49761247067148212                    0.49761247067148212                      0.49761247067148212           -9.7995098001326317e-18  50.002499937503124   50                   0.5                  0                    5.0343032528925286e-18    6                             1                           1                     0.99975313008437383  0.019684952099617899  0.0099085927613167465        6.2653126977420154e-15              5.203003768277708e-13       
                      -4.7657992023989394e-18                          38                                          1513.1757291805129                  -1.598192271804711e-08                -4.0132723216287884e-22             -8.8825766211098831e-22         7.6296273559094141e-22             0.52011102289424882                    0.52011102289424882                      0.52011102289424882           -9.7995080131519692e-18  50.002499937503124   50                   0.5                  0                    5.0338341056795498e-18    7                             2                           1                     0.99975312199935507  0.019667526104918356  0.0099051321533215851        2.5061250790968061e-14              5.4536162761873885e-13       
                      -4.7673885999599788e-18                          44                                          1503.1140249401262                  -1.5729082744314034e-08                -1.5893975610396218e-21             -8.8898102434696008e-22         1.0543038477743622e-21             0.60874128552063589                    0.60874128552063589                      0.60874128552063589           -9.7994991904638756e-18  50.002499937503124   50                   0.5                  0                    5.0319452676804699e-18    8                             3                           1                     0.9997529179257264   0.019597906038320925  0.0098912519873817877        1.0024500316387225e-13              6.4560663078261103e-13       
                      -4.773499351647813e-18                          50                                          1461.6458406134288                  -1.4761509567913253e-08                -6.1107516878336564e-21             -9.0129141185041891e-22         2.6196571302213756e-21             0.94154104303955133                    0.94154104303955133                      0.94154104303955133           -9.7994383050105641e-18  50.002499937503124   50                   0.5                  0                    5.02422058764438e-18    9                             4                           1                     0.99974947641448653  0.019320777026464984  0.0098351301221691317        4.0098001265548898e-13              1.0465866434381002e-12       
                      -1.4572937656658377e-17                          51                                          1455.2784575929002                  -1.4744673553884912e-08                -9.7994383050105641e-18             -9.0129141185041891e-22         2.6196571302213756e-21             0.94154104303955133                    0.94154104303955133                      0.94154104303955133           -1.9598876610021128e-17  100.00499987500625   100                  1                    0                    5.02422058764438e-18    10                            0                           2                     0.99974947641448653  0.019320777026464984  0.0098351301221691317        0                                1.0465866434381002e-12       
                      -1.4573033857630177e-17                          57                                          1454.5537333390132                  -1.4728845793531204e-08                -9.6200971803785721e-23             -9.0156922636533791e-22         2.6499003906870285e-21             0.94665355169350118                    0.94665355169350118                      0.94665355169350118           -1.9598874076869613e-17  100.00499987500625   100                  1                    0                    5.024091888075113e-18    11                            1                           2                     0.99974939876760593  0.019315617472103554  0.0098344108039675106        6.5279603023282926e-15              1.0531146037404285e-12       
                      -1.4573417630145159e-17                          63                                          1451.6534739411127                  -1.4665724398103035e-08                -3.8377251498004401e-22             -9.0271683831765763e-22         2.7723059824610928e-21             0.96701272117679482                    0.96701272117679482                      0.96701272117679482           -1.9598863746764797e-17  100.00499987500625   100                  1                    0                    5.0235765274754944e-18    12                            2                           2                     0.99974907803588497  0.019294986027812974  0.009831527860165239        2.611184120931317e-14              1.0792264449497417e-12       
                      -1.4574936356290866e-17                          69                                          1440.0376709955033                  -1.4416253340504359e-08                -1.5187261457062643e-21             -9.0788124667721552e-22         3.2843088549990638e-21             1.0470067659721247                     1.0470067659721247                       1.0470067659721247            -1.9598819308016684e-17  100.00499987500625   100                  1                    0                    5.0215065241174937e-18    13                            3                           2                     0.99974763492387153  0.019212568922440849  0.0098199055306881378        1.0444736483725268e-13              1.1836738097869943e-12       
                      -1.4580758099373508e-17                          75                                          1393.7515201300846                  -1.3465355153122465e-08                -5.8217430826427376e-21             -9.3724049325508173e-22         5.6573592496868499e-21             1.3496536952434623                     1.3496536952434623                       1.3496536952434623            -1.9598594263599267e-17  100.00499987500625   100                  1                    0                    5.0131160454693261e-18    14                            4                           2                     0.99973943217302241  0.018884658204214633  0.0097719791039506589        4.1778945934901073e-13              1.601463269136005e-12       
                       5.0159854677217449e-18                          76                                          1414.885189800536                   -1.3577904803407204e-08                 1.9596743567095254e-17             -9.3724049325508173e-22         5.6573592496868499e-21             1.3496536952434623                     1.3496536952434623                       1.3496536952434623            -1.8506965040130338e-21  0.5                  0                    0.5                  0                    5.0131160454693261e-18    15                            0                           3                     0.99973943217302241  0.018884658204214633  0.0097719791039506589        0                                1.601463269136005e-12       
                       5.0158943466578345e-18                          82                                          1414.228028462722                   -1.3564380778504572e-08                -9.112106391009042e-23             -9.3790916678544542e-22         5.6998830869208952e-21             1.3553893336405158                     1.3553893336405158                       1.3553893336405158            -1.8503371148718633e-21  0.5                  0                    0.5                  0                    5.0129827098525711e-18    16                            1                           3                     0.99973924543383952  0.018880990968080231  0.0097703399133696935        6.7143257053522954e-15              1.6081775948413573e-12       
                       5.0155307688342706e-18                          88                                          1411.6015985526544                  -1.3510444972713381e-08                -3.6357782356399028e-22             -9.4061762778870625e-22         5.8711601882739764e-21             1.3783208356779963                     1.3783208356779963                       1.3783208356779963            -1.848900242701432e-21  0.5                  0                    0.5                  0                    5.0124491265164862e-18    17                            2                           3                     0.99973848903044915  0.018866329007157456  0.0097637839970550148        2.6857302821409182e-14              1.6350348976627664e-12       
                       5.0140908404596996e-18                          94                                          1401.1364870782029                  -1.329724929510496e-08                -1.4399283745706105e-21             -9.5198470316730754e-22         6.5747122877215349e-21             1.4698436620339368                     1.4698436620339368                       1.4698436620339368            -1.8431637033185707e-21  0.5                  0                    0.5                  0                    5.0103112765784639e-18    18                            3                           3                     0.9997353142014006   0.018807792891005818  0.0097375738210642333        1.0742921128563673e-13              1.7424641089484031e-12       
                       5.0085537259788414e-18                          100                                         1360.2159577523494                  -1.2484173223988451e-08                -5.5371144808586468e-21             -1.0055454902973678e-21         9.6556781750984074e-21             1.8310404407640091                     1.8310404407640091                       1.8310404407640091            -1.8203926576127374e-21  0.5                  0                    0.5                  0                    5.001723985951653e-18    19                            4                           3                     0.9997203478900798   0.018575435281762614  0.0096329460793938611        4.297168451425469e-13              2.17218095409095e-12       
                       2.4604892937282017e-17                          101                                         1385.5741611956241                  -1.2752014565208301e-08                 1.9596339211303175e-17             -1.0055454902973678e-21         9.6556781750984074e-21             1.8310404407640091                     1.8310404407640091                       1.8310404407640091             1.9594518818645562e-17  100                 -100                  0                    0                    5.001723985951653e-18    20                            0                           4                     0.9997203478900798   0.018575435281762614  0.0096329460793938611        0                                2.17218095409095e-12       
                       2.4604805543833706e-17                          107                                         1385.017650660192                   -1.2740641066201234e-08                -8.7393448310550421e-23             -1.0065972510254065e-21         9.7088937930099231e-21             1.8368088326987317                     1.8368088326987317                       1.8368088326987317             1.959451305816579e-17  100                 -100                  0                    0                    5.0015901891259329e-18    21                            1                           4                     0.99972005398805075  0.018573335522504574  0.0096304339945852205        6.8563634239558616e-15              2.1790373175149061e-12       
                       2.4604456748497514e-17                          113                                         1382.7959325237293                  -1.2695278423493408e-08                -3.4879533619360067e-22             -1.0108360382013223e-21         9.9227381906466868e-21             1.8598550412232877                     1.8598550412232877                       1.8598550412232877             1.9594489841551285e-17  100                 -100                  0                    0                    5.0010550047937852e-18    22                            2                           4                     0.99971886946690214  0.018564943156458052  0.0096203894706083405        2.7425453695823446e-14              2.2064627712107295e-12       
                       2.4603073922022004e-17                          119                                         1373.9812961471143                  -1.2515916504747553e-08                -1.3828264755080255e-21             -1.0282929106141389e-21         1.0793438088953683e-20             1.951579662466036                      1.951579662466036                        1.951579662466036              1.9594394213052211e-17  100                 -100                  0                    0                    4.9989145637914531e-18    23                            3                           4                     0.99971399046184695  0.018531480343455496  0.0095802722560401551        1.0970181478329378e-13              2.3161645859940231e-12       
                       2.4597733982440137e-17                          125                                         1340.0379940653365                  -1.1831095140062929e-08                -5.3399395818682932e-21             -1.1057624222380699e-21         1.4497644282865915e-20             2.3097948395811359                     2.3097948395811359                       2.3097948395811359             1.9593969568330886e-17  100                 -100                  0                    0                    4.9903725322486242e-18    24                            4                           4                     0.99969232491484061  0.018399330048192379  0.0094207672203275566        4.3880725913317514e-13              2.7549718451271983e-12       
                       5.0037644141092521e-18                          126                                         1311.2931024973768                  -1.1533666120436497e-08                -1.9593969568330883e-17             -1.1057624222380699e-21         1.4497644282865915e-20             2.3097948395811359                     2.3097948395811359                       2.3097948395811359             0                    0                    0                    0                    0                    4.9903725322486242e-18    25                            0                           5                     0.99969232491484061  0.018399330048192379  0.0094207672203275566        0                                2.7549718451271983e-12       
                       5.0036808986676526e-18                          132                                         1310.7079807317491                  -1.1521751855678645e-08                -8.3515441599260849e-23             -1.1070265577201305e-21         1.4559997179145044e-20             2.3154589739078779                     2.3154589739078779                       2.3154589739078779             0                    0                    0                    0                    0                    4.9902279280462281e-18    26                            1                           5                     0.99969197108150198  0.018395272517488511  0.009419542509255573        7.2447570889430522e-15              2.7622166022161412e-12       
                       5.0033476982965043e-18                          138                                         1308.3669030416074                  -1.147425709138612e-08                -3.3320037114822351e-22             -1.112110852351682e-21         1.4810087219022891e-20             2.3380644953594931                     2.3380644953594931                       2.3380644953594931             0                    0                    0                    0                    0                    4.989649721929833e-18    27                            2                           5                     0.99969054791813972  0.0183790484384658   0.0094146434329358056        2.8979028355772209e-14              2.7911956305719136e-12       
                       5.002028548004189e-18                          144                                         1299.0001501741986                  -1.1286858607864297e-08                -1.3191502923155119e-21             -1.1328849791731042e-21         1.5820905693787621e-20             2.4276524831762964                     2.4276524831762964                       2.4276524831762964             0                    0                    0                    0                    0                    4.9873405272895744e-18    28                            3                           5                     0.99968473192823148  0.018314248849399008  0.0093950433920112885        1.1591611342308883e-13              2.9071117439950023e-12       
                       4.9969621288934306e-18                          150                                         1261.8843050218438                  -1.0577550990820573e-08                -5.0664191107579804e-21             -1.2225331817680249e-21         2.0007380285977156e-20             2.7716905681912323                     2.7716905681912323                       2.7716905681912323             0                    0                    0                    0                    0                    4.9781772817892219e-18    29                            4                           5                     0.99965961497480771  0.018056599683142296  0.009316582131831893        4.6366445369235534e-13              3.3707761976873578e-12       
                       4.9084847904460332e-18                          151                                         1476.9661226064475                  -1.8773655000419578e-08                -8.8477338447397353e-20             -1.2225331817680249e-21         2.0007380285977156e-20             2.7716905681912323                     2.7716905681912323                       2.7716905681912323            -8.8477338447397245e-20  25                   0                    25                   0                    4.9781772817892219e-18    30                            0                           6                     0.99965961497480771  0.018056599683142296  0.009316582131831893        0                                3.3707761976873578e-12       
                       4.9083640698353621e-18                          157                                         1476.517033933022                   -1.8763242616196321e-08                -1.2072061067150857e-22             -1.2238234311306749e-21         2.0066810345193948e-20             2.7762927786531355                     2.7762927786531355                       2.7762927786531355            -8.8515357701146493e-20  25                   0                    25                   0                    4.978036440622445e-18    31                            1                           6                     0.99965925318975535  0.018064358714519693  0.0092928665445678096        6.4321041996786352e-15              3.3772083018870366e-12       
                       4.9078818557378518e-18                          163                                         1474.7260689007182                  -1.8721737129734136e-08                -4.8221409750991439e-22             -1.2290306930692069e-21         2.0304848882820983e-20             2.7946535762263283                     2.7946535762263283                       2.7946535762263283            -8.8667839249955242e-20  25                   0                    25                   0                    4.9774738767980553e-18    32                            2                           6                     0.99965779307591218  0.018095477397950057  0.0091980478078437164        2.5728416798714541e-14              3.4029367186857509e-12       
                       4.9059635894666227e-18                          169                                         1467.6481574323718                  -1.8558007909043639e-08                -1.9182662712289959e-21             -1.2505950058156892e-21         2.1261869579617535e-20             2.8673226770771061                     2.8673226770771061                       2.8673226770771061            -8.9284228518457756e-20  25                   0                    25                   0                    4.9752365434112785e-18    33                            3                           6                     0.99965174639889864  0.018221271126215865  0.0088194701082622822        1.0291366719485816e-13              3.5058503858806092e-12       
                       4.8984534533906913e-18                          175                                         1440.6811851270097                  -1.7939007903775709e-08                -7.510136075932261e-21             -1.3483085308484119e-21         2.515398008747849e-20             3.145355850192125                      3.145355850192125                        3.145355850192125             -9.1852589192216636e-20  25                   0                    25                   0                    4.9665003710262774e-18    34                            4                           6                     0.9996243441890813   0.018745426365758495  0.0073162801069108609        4.1165466877943265e-13              3.9175050546600418e-12       
# Table End
