# OOMMF: rectangular mesh v0.99
# Segment count: 1
# Begin: Segment
# Begin: Header
# Title: samplebig.omf
# Desc: Omf file created from vio file by viotoomf
# meshunit: unknown
# xbase: 0
# ybase: 0
# zbase: 0
# xstepsize: 1
# ystepsize: 1
# zstepsize: 1
# xnodes: 50
# ynodes: 100
# znodes: 1
# xmin: -0.5
# ymin: -0.5
# zmin: -0.5
# xmax: 49.5
# ymax: 99.5
# zmax:  0.5
# valueunit: Ms
# valuemultiplier: 1
# ValueRangeMaxMag:  1.
# ValueRangeMinMag:  1e-8
# End: Header
# Begin: data text
-0              0             -0            
 0              0              0            
-0              0              0            
-0.980416       0.19693778    -1.5097079e-07
-0.9986307      0.052314077   -7.5620996e-08
-0.99986595    -0.0163722     -6.6949084e-08
-0.99905527    -0.043458294   -7.2313092e-08
-0.99834365    -0.057532005   -8.1671892e-08
-0.99776679    -0.066793539   -9.2722679e-08
-0.99727267    -0.073805049   -1.047331e-07 
-0.99682724    -0.079595447   -1.1697576e-07
-0.99640727    -0.084690928   -1.2868507e-07
-0.995996      -0.089397877   -1.3915874e-07
-0.99558091    -0.093907468   -1.4782739e-07
-0.99515277    -0.098341189   -1.543181e-07 
-0.99470466    -0.10277449    -1.5846295e-07
-0.99423188    -0.10725173    -1.6026877e-07
-0.99373096    -0.11179779    -1.5989895e-07
-0.99319905    -0.1164286     -1.5758481e-07
-0.99263287    -0.12116107    -1.5364365e-07
-0.99202734    -0.12602288    -1.4843081e-07
-0.99137414    -0.13106228    -1.4244239e-07
-0.99065953    -0.13635877    -1.3646864e-07
-0.98986143    -0.14203629    -1.3184001e-07
-0.98894501    -0.1482826     -1.3164222e-07
-0.98785442    -0.15538228    -1.4125776e-07
-0.98649603    -0.16378531    -1.7778817e-07
-0.98470491    -0.17423031    -2.6624218e-07
-0.98211378    -0.18828827    -4.4106247e-07
-0.97787839    -0.20917428    -6.7893706e-07
-0.9682225     -0.25009045     1.0140068e-06
-0.93950015    -0.34254846     6.3434618e-06
-0.78996819    -0.61314785     4.9735801e-05
-0.11592609    -0.99325782     0.0001075203 
 0.68431264    -0.72918868     7.0328686e-05
 0.92140317    -0.38860807     9.9464633e-06
 0.96278769    -0.2702589      6.8466045e-07
 0.97556782    -0.21969862    -1.2141467e-06
 0.98103803    -0.19381543    -1.0986663e-06
 0.98466021    -0.17448288    -7.8368572e-07
 0.98763579    -0.15676577    -6.0639053e-07
 0.99037147    -0.1384356     -4.7528948e-07
 0.99299681    -0.11814125    -3.85823e-07  
 0.99558765    -0.093835995   -3.2145059e-07
 0.99827445    -0.058721229   -2.8409067e-07
 0.99992412     0.012318579   -3.0601265e-07
 0.98973787     0.14289476    -5.8928441e-07
-0              0             -0            
-0              0             -0            
-0              0              0            
-0              0             -0            
-0.942303       0.33476114    -2.5354313e-07
-0.94497758     0.32713506    -4.3694378e-08
-0.9534089      0.30168107    -8.2238721e-08
-0.99520212     0.097840406   -9.0689326e-08
-0.99999839    -0.0017876562  -7.7393587e-08
-0.99906427    -0.04325055    -8.4717584e-08
-0.9979713     -0.0636658     -9.803756e-08 
-0.99707109    -0.076480433   -1.1352844e-07
-0.99630523    -0.085883155   -1.2950446e-07
-0.99561816    -0.093512021   -1.4480793e-07
-0.99497187    -0.10015447    -1.5840166e-07
-0.99433899    -0.1062545     -1.693996e-07 
-0.99369884    -0.11208336    -1.7717019e-07
-0.99303597    -0.11781152    -1.8137855e-07
-0.99233902    -0.12354472    -1.8197329e-07
-0.99159944    -0.12934646    -1.7918202e-07
-0.99081081    -0.13525522    -1.7333628e-07
-0.98996681    -0.14130008    -1.6490314e-07
-0.98905969    -0.14751582    -1.542592e-07 
-0.98807734    -0.15395834    -1.4180486e-07
-0.98699987    -0.1607212     -1.2789307e-07
-0.98579448    -0.16795605    -1.1299969e-07
-0.98440778    -0.17590132    -9.8424835e-08
-0.98275131    -0.18493205    -8.5631939e-08
-0.98067313    -0.19565322    -8.3519048e-08
-0.97789282    -0.20910685    -8.6849553e-08
-0.97380799    -0.22737192    -1.0968883e-07
-0.96698254    -0.25484258     8.3008644e-08
-0.95215243    -0.30562356     1.7781068e-06
-0.91263306    -0.40877974     6.1653268e-06
-0.74602771    -0.66591489     3.7651753e-05
-0.30468249    -0.95245397     3.1741565e-05
-0.023952933   -0.99971306    -2.3484888e-06
 0.19822976    -0.98015559     1.9925221e-05
 0.64653826    -0.76288152     4.4424887e-05
 0.88761693    -0.46058246     9.3487133e-06
 0.94361401    -0.33104768     1.3285637e-06
 0.96331024    -0.26839039    -2.9683406e-07
 0.97271293    -0.23201206    -6.943128e-07 
 0.97902149    -0.20375715    -5.5374738e-07
 0.98422915    -0.17689826    -4.5864968e-07
 0.9889738     -0.14809062    -3.6811781e-07
 0.99353802    -0.11349986    -3.079607e-07 
 0.9980846     -0.06186413    -2.7958649e-07
 0.99922252     0.039424814   -3.3101333e-07
 0.96806526     0.25069839    -3.3216662e-07
 0.95487356     0.29701251    -1.4477577e-07
 0.96261042     0.27088964    -1.3469287e-06
 0              0             -0            
-0              0             -0            
-0.67730385     0.73570341    -9.3921614e-08
-0.90295768     0.42972946    -1.0605013e-07
-0.95452613     0.29812726    -8.0506162e-08
-0.98864567     0.15026554    -9.2838953e-08
-0.99973261     0.023124192   -7.9006966e-08
-0.99931133    -0.037105571   -7.2574288e-08
-0.99774462    -0.067124389   -7.6967567e-08
-0.99637258    -0.085098311   -8.6301526e-08
-0.99520332    -0.097828276   -9.8192956e-08
-0.99415988    -0.10791743    -1.112972e-07 
-0.99318171    -0.1165767     -1.2446274e-07
-0.9922244     -0.12446181    -1.3662351e-07
-0.99125457    -0.13196364    -1.4686832e-07
-0.99024677    -0.13932472    -1.5446875e-07
-0.98918164    -0.14669587    -1.5895246e-07
-0.98804426    -0.1541705     -1.5994624e-07
-0.98682183    -0.16181077    -1.5727126e-07
-0.98550069    -0.16967124    -1.5063888e-07
-0.98406261    -0.17782228    -1.3981676e-07
-0.98247862    -0.18637538    -1.243431e-07 
-0.98070103    -0.19551344    -1.0372484e-07
-0.97865027    -0.20553264    -7.7429789e-08
-0.97619092    -0.21691312    -4.4189488e-08
-0.97308463    -0.23044802    -3.9326347e-09
-0.96887577    -0.24754755     6.7649253e-08
-0.96259671    -0.2709384      2.080465e-07 
-0.95182014    -0.30665693     8.7116285e-07
-0.92907387    -0.36989418     2.9987498e-06
-0.87051243    -0.49214643     9.8830451e-06
-0.67985004    -0.73335117     3.1779287e-05
-0.33489475    -0.94225556     1.8063811e-05
-0.13578978    -0.99073768     1.5624984e-07
-0.021889122   -0.99976039     1.3644013e-06
 0.090146504   -0.99592853    -1.5434728e-07
 0.24875507    -0.96856642     9.7747197e-06
 0.57945037    -0.81500751     3.2085045e-05
 0.83216524    -0.5545277      1.2947363e-05
 0.91534859    -0.4026624      2.6777359e-06
 0.94675463    -0.32195607     4.1310204e-07
 0.96274906    -0.27039644    -3.9975725e-07
 0.97355705    -0.228444      -4.3126934e-07
 0.9824754     -0.18639244    -3.8566179e-07
 0.99062407    -0.13661596    -3.3221866e-07
 0.99798101    -0.063512623   -3.2453841e-07
 0.99753338     0.070194051   -3.7218845e-07
 0.97213298     0.23443019    -3.3400693e-07
 0.92802823     0.37250987    -4.983977e-07 
 0.71770418     0.69634813    -5.1590888e-07
 0              0             -0            
-0.65699804     0.7538923     -1.2730514e-07
-0.69047511     0.72335619    -6.4009278e-08
-0.8060618      0.59183139    -1.1223288e-07
-0.93109757     0.36477023    -1.2568921e-07
-0.98126715     0.19265182    -1.2350625e-07
-0.9983511      0.057402994   -1.245165e-07 
-0.9997406     -0.02277573    -1.3039046e-07
-0.99793339    -0.064256929   -1.4898701e-07
-0.99607038    -0.088565446   -1.7351648e-07
-0.99445081    -0.10520237    -1.9878141e-07
-0.99300599    -0.11806384    -2.2188185e-07
-0.99165463    -0.12892286    -2.4085881e-07
-0.9903326     -0.13871321    -2.5431754e-07
-0.98899055    -0.14797857    -2.6135797e-07
-0.98759025    -0.15705234    -2.6165588e-07
-0.98610169    -0.16614284    -2.5526145e-07
-0.98450005    -0.17538421    -2.4260609e-07
-0.9827621     -0.18487479    -2.2405038e-07
-0.98086041    -0.19471219    -1.9989442e-07
-0.97875577    -0.20502967    -1.6984319e-07
-0.97638482    -0.21603858    -1.3307127e-07
-0.9736411     -0.22808561    -8.7580766e-08
-0.97033972    -0.24174535    -2.9289774e-08
-0.96614772    -0.25798953     5.1319248e-08
-0.9604156     -0.27857116     1.9409555e-07
-0.95175433    -0.30686113     5.0044434e-07
-0.93667197    -0.35020801     1.5130524e-06
-0.90545803    -0.42443573     4.112545e-06 
-0.82877433    -0.55958301     1.2040563e-05
-0.63051283    -0.77617878     2.5007781e-05
-0.35248226    -0.93581849     1.2465848e-05
-0.18565822    -0.9826144      1.976138e-06 
-0.089035057   -0.99602848     7.6239627e-07
-0.021835031   -0.99976158    -1.4548342e-06
 0.041031193   -0.99915785    -1.015955e-07 
 0.12825461    -0.9917413      1.1270306e-06
 0.26635659    -0.96387458     6.55146e-06  
 0.52717555    -0.84975636     2.1993215e-05
 0.77602178    -0.63070613     1.3883128e-05
 0.88618624    -0.46332917     3.8139656e-06
 0.93188763    -0.36274707     9.1361102e-07
 0.95631075    -0.2923522     -1.4129712e-07
 0.9731043     -0.23036507    -3.3375511e-07
 0.98695385    -0.16100323    -3.4984603e-07
 0.99800754    -0.063094653   -3.7164884e-07
 0.99632359     0.085669503   -4.2661722e-07
 0.96190059     0.2733995     -5.2056788e-07
 0.85213363     0.52332419    -5.6850337e-07
 0.72673732     0.68691552    -3.3922475e-07
 0.69199866     0.72189879    -6.7163734e-07
-0.40722623     0.91332734    -7.5793096e-08
-0.58226675     0.81299782    -9.1409611e-08
-0.73090369     0.68248063    -1.1109725e-07
-0.87413716     0.48567909    -1.4646349e-07
-0.96473217     0.26323348    -1.4006493e-07
-0.99494916     0.1003799     -1.1777654e-07
-1              0.00011539404 -1.0358652e-07
-0.99847293    -0.055243276   -1.0301481e-07
-0.99617374    -0.087394893   -1.1307673e-07
-0.994066      -0.10877876    -1.2874852e-07
-0.99217087    -0.12488792    -1.4678784e-07
-0.99039775    -0.13824709    -1.648564e-07 
-0.98866218    -0.150157      -1.8093174e-07
-0.9868955     -0.1613607     -1.9333837e-07
-0.98504299    -0.17230864    -2.0067566e-07
-0.98305988    -0.18328479    -2.0193224e-07
-0.98090643    -0.19448037    -1.9618146e-07
-0.97854149    -0.20604984    -1.825607e-07 
-0.97591221    -0.21816348    -1.5973299e-07
-0.97293824    -0.23106535    -1.2572916e-07
-0.96948546    -0.24514872    -7.6831874e-08
-0.9653191     -0.26107281    -5.9366685e-09
-0.96000767    -0.27997372     1.0511072e-07
-0.95269859    -0.30391669     3.1073068e-07
-0.94155228    -0.3368668      7.7049316e-07
-0.92204285    -0.38708779     2.0380926e-06
-0.88242114    -0.47046039     5.0503359e-06
-0.79103005    -0.61177731     1.2675481e-05
-0.59642941    -0.80266553     1.9379328e-05
-0.36592156    -0.9306457      9.1330739e-06
-0.22101328    -0.97527081     2.4928627e-06
-0.13451245    -0.9909119      2.9568646e-08
-0.077477582   -0.99699408    -4.1871306e-07
-0.03052539    -0.99953401    -9.9020895e-07
 0.016007982   -0.99987185    -6.3388984e-07
 0.06920664    -0.99760234    -7.390542e-07 
 0.14625679    -0.98924667     9.5841835e-07
 0.26946792    -0.96300936     4.449711e-06 
 0.48518112    -0.87441367     1.4674143e-05
 0.72391975    -0.68988419     1.2911065e-05
 0.85896087    -0.51204127     4.5890288e-06
 0.92172438    -0.38784555     1.2708498e-06
 0.95685428    -0.29056811     7.405778e-08 
 0.9812361     -0.19281004    -2.6071618e-07
 0.99780434    -0.066230424   -3.7953191e-07
 0.99333709     0.11524493    -5.269282e-07 
 0.93093193     0.36519277    -6.9252064e-07
 0.79420239     0.60765332    -6.1275506e-07
 0.6354447      0.77214634    -5.2909905e-07
 0.44718763     0.89444017    -4.5919393e-07
-0.28821102     0.95756692    -5.3934112e-08
-0.4215399      0.90680987    -6.9386125e-08
-0.60650074     0.79508293    -1.145583e-07 
-0.78730571     0.61656278    -1.6484327e-07
-0.92701358     0.37502778    -1.9190898e-07
-0.9865073      0.16371724    -1.7557119e-07
-0.99943888     0.033495087   -1.694756e-07 
-0.99922562    -0.039346185   -1.8465815e-07
-0.99667656    -0.08146058    -2.1195112e-07
-0.99407041    -0.10873843    -2.4194463e-07
-0.99167663    -0.1287533     -2.6904692e-07
-0.98942775    -0.1450265     -2.8998863e-07
-0.9872213     -0.15935527    -3.0280154e-07
-0.98496658    -0.17274497    -3.0633123e-07
-0.98258758    -0.18580012    -3.0012629e-07
-0.9800185     -0.1989063     -2.8406842e-07
-0.97719651    -0.21233687    -2.5807569e-07
-0.97404945    -0.22633529    -2.2144692e-07
-0.97047645    -0.24119601    -1.7225152e-07
-0.96631497    -0.2573624     -1.0585163e-07
-0.9612807     -0.27557105    -1.2181106e-08
-0.95484501    -0.2971043      1.3468279e-07
-0.94595397    -0.324301       4.0418129e-07
-0.93232536    -0.36162049     9.9742829e-07
-0.90851617    -0.41784975     2.4495073e-06
-0.86123776    -0.50820225     5.6942904e-06
-0.75980622    -0.65014958     1.2258951e-05
-0.57536054    -0.81789994     1.504913e-05 
-0.37963027    -0.92513829     7.2064845e-06
-0.25161403    -0.96782768     2.0401158e-06
-0.1728723     -0.98494422     3.7889774e-07
-0.1208241     -0.99267393    -9.6991562e-07
-0.080139682   -0.99678361    -3.3565698e-07
-0.04400102    -0.99903148    -1.3439163e-06
-0.0079923449  -0.99996805    -6.3310063e-07
 0.032257982   -0.99947959    -1.1394201e-06
 0.081700101   -0.99665695    -7.7949267e-07
 0.15268022    -0.98827565     4.6212958e-07
 0.2644245     -0.96440637     2.7734982e-06
 0.45059747    -0.89272726     9.7013335e-06
 0.67955279    -0.7336266      1.0916488e-05
 0.83850664    -0.54489136     4.9021864e-06
 0.92191756    -0.3873862      1.458426e-06 
 0.96999264    -0.24313425     1.6899637e-07
 0.99737722    -0.072378583   -3.4188508e-07
 0.98548579     0.1697581     -6.8115867e-07
 0.88083678     0.47342005    -8.726675e-07 
 0.69242156     0.72149318    -7.3089183e-07
 0.48029476     0.87710714    -4.8727156e-07
 0.32181856     0.94680136    -3.6021584e-07
-0.24050009     0.97064912    -5.0552245e-08
-0.33325654     0.94283617    -5.3720697e-08
-0.47745615     0.87865561    -9.0363557e-08
-0.66297185     0.74864435    -1.5232057e-07
-0.85326797     0.52147269    -2.1905792e-07
-0.96525371     0.2613146     -2.0922086e-07
-0.99651009     0.083472624   -1.6900097e-07
-0.9998908     -0.014777338   -1.5676359e-07
-0.99753791    -0.070129186   -1.6655568e-07
-0.99447626    -0.1049616     -1.8686301e-07
-0.99154335    -0.12977603    -2.1026392e-07
-0.98875886    -0.14951892    -2.3210616e-07
-0.98601401    -0.16666244    -2.4896735e-07
-0.98319346    -0.1825667     -2.5813418e-07
-0.98019338    -0.19804291    -2.57446e-07  
-0.97691768    -0.21361619    -2.4504948e-07
-0.97326577    -0.22968189    -2.1889019e-07
-0.96911007    -0.24662857    -1.757975e-07 
-0.964257      -0.26496875    -1.097253e-07 
-0.9583739     -0.28551617    -7.8009101e-09
-0.95084089    -0.30967978     1.6199107e-07
-0.94041711    -0.34002301     4.8139503e-07
-0.92442507    -0.38136366     1.1738675e-06
-0.89669514    -0.44264871     2.7383044e-06
-0.84311509    -0.53773314     6.0034172e-06
-0.73639494    -0.67655194     1.1243116e-05
-0.56502843    -0.82507145     1.1901152e-05
-0.39540109    -0.91850859     5.7428051e-06
-0.28085622    -0.95974988     1.9872814e-06
-0.20848197    -0.97802621    -1.1701235e-07
-0.16004644    -0.98710948    -2.2457938e-07
-0.12314079    -0.9923892     -1.2596432e-06
-0.091952205   -0.99576342    -4.1944492e-07
-0.062971763   -0.99801528    -1.5117046e-06
-0.033748392   -0.99943036    -7.0232068e-07
-0.0020334087  -0.99999791    -1.2934254e-06
 0.035229038   -0.99937928    -1.0633837e-06
 0.082344636   -0.99660391    -7.9572828e-07
 0.1490204     -0.98883414    -2.6973666e-07
 0.25224665    -0.96766299     1.8116699e-06
 0.42025575    -0.90740567     6.1027149e-06
 0.64602113    -0.76331955     8.7960789e-06
 0.83353561    -0.55246568     4.8242919e-06
 0.94254202    -0.33408758     1.4420981e-06
 0.99623936    -0.086643726   -2.7413272e-08
 0.96799874     0.25095516    -9.1880196e-07
 0.79509872     0.60648006    -1.0604404e-06
 0.5644815      0.82544571    -7.2655973e-07
 0.37685716     0.92627138    -4.4271366e-07
 0.25851107     0.96600831    -3.3692405e-07
-0.21611136     0.97636873    -5.5401276e-08
-0.28829452     0.95754176    -5.0837091e-08
-0.39563867     0.91840625    -7.7684973e-08
-0.54232484     0.84016889    -1.2086281e-07
-0.73831797     0.67445284    -2.1565613e-07
-0.91536665     0.40262121    -2.8069991e-07
-0.98707354     0.16026814    -2.4336634e-07
-0.99974668     0.022505982   -2.2362043e-07
-0.99864024    -0.052130859   -2.3764269e-07
-0.99528486    -0.096995428   -2.6516256e-07
-0.99179041    -0.12787406    -2.9202832e-07
-0.98840642    -0.15183128    -3.1198803e-07
-0.98504364    -0.17230496    -3.2159227e-07
-0.98156059    -0.19115137    -3.1881021e-07
-0.97781658    -0.20946299    -3.021396e-07 
-0.97366983    -0.22796287    -2.6993553e-07
-0.96895593    -0.24723348    -2.1912695e-07
-0.96344441    -0.2679083     -1.4314759e-07
-0.95675492    -0.29089516    -2.6971492e-08
-0.94818622    -0.31771517     1.6615459e-07
-0.93633771    -0.35110062     5.2720753e-07
-0.91821718    -0.39607728     1.2857613e-06
-0.8871721     -0.46143872     2.8954423e-06
-0.82902569    -0.55921054     5.9956055e-06
-0.72105795    -0.69287479     1.000327e-05 
-0.56337744    -0.82619965     9.566008e-06 
-0.41370213    -0.91041231     4.8206907e-06
-0.30994049    -0.95075595     1.5477536e-06
-0.24281582    -0.97007239     2.4408837e-07
-0.19735442    -0.9803322     -8.3215235e-07
-0.1632452     -0.98658556    -3.5142611e-07
-0.13530193    -0.99080443    -1.4816488e-06
-0.1105274     -0.99387306    -4.2400171e-07
-0.087036252   -0.99620515    -1.6285852e-06
-0.063329458   -0.99799269    -7.2121492e-07
-0.037935708   -0.99928015    -1.3321505e-06
-0.0091713192  -0.99995792    -1.1858695e-06
 0.025486208   -0.99967515    -8.9431859e-07
 0.070020013   -0.9975456     -1.299937e-06 
 0.13271853    -0.99115378    -1.6794529e-07
 0.22951107    -0.97330606     5.7163737e-07
 0.3887392     -0.92134786     3.9026659e-06
 0.62731886    -0.77876252     7.0237638e-06
 0.862198      -0.50657141     4.6649589e-06
 0.99150705    -0.13005295     8.9911299e-07
 0.9300651      0.36739478    -1.1628227e-06
 0.67533338     0.73751259    -1.3119892e-06
 0.44709572     0.89448613    -6.9721398e-07
 0.29715851     0.95482814    -4.4576734e-07
 0.20550133     0.97865683    -3.2639807e-07
-0.20036879     0.97972053    -6.4747923e-08
-0.26179203     0.96512431    -5.3872878e-08
-0.34739536     0.93771875    -8.0900961e-08
-0.45825261     0.88882202    -1.0091243e-07
-0.61803061     0.78615403    -1.7569945e-07
-0.82200307     0.56948304    -3.0052206e-07
-0.96059448     0.27795362    -3.1782426e-07
-0.99683583     0.07948789    -2.5615569e-07
-0.9996891     -0.024934463   -2.4441249e-07
-0.99646938    -0.083957165   -2.6216094e-07
-0.99243468    -0.12277364    -2.8794301e-07
-0.98838842    -0.15194857    -3.0948146e-07
-0.98431283    -0.17643209    -3.2060521e-07
-0.98004502    -0.19877562    -3.1706145e-07
-0.97539341    -0.22047138    -2.9524347e-07
-0.97014362    -0.24253111    -2.5077102e-07
-0.96401846    -0.26583534    -1.761461e-07 
-0.95658773    -0.29144451    -5.5007096e-08
-0.94708019    -0.32099706     1.5175593e-07
-0.93397301    -0.35734361     5.3880797e-07
-0.91406107    -0.40557659     1.3288396e-06
-0.8804726     -0.47409704     2.9199243e-06
-0.81959885    -0.57293785     5.7427874e-06
-0.71336889    -0.70078874     8.74339e-06  
-0.56866747    -0.82256752     7.8746807e-06
-0.43441167    -0.90071446     4.040252e-06 
-0.33919373    -0.94071656     1.4769199e-06
-0.27628911    -0.96107459    -6.6902544e-08
-0.23325865    -0.97241473    -2.6107247e-07
-0.20131652    -0.97952622    -1.1371072e-06
-0.17576602    -0.98443198    -3.8637475e-07
-0.15394023    -0.98808014    -1.5978578e-06
-0.13423453    -0.99094957    -4.1168852e-07
-0.11549705    -0.99330783    -1.652548e-06 
-0.096780762   -0.99530572    -7.144925e-07 
-0.077161252   -0.99701864    -1.2941437e-06
-0.055562682   -0.99845523    -1.2152244e-06
-0.030586515   -0.9995321     -8.3032336e-07
-3.7144891e-05 -1             -1.5147029e-06
 0.039777234   -0.99920857    -5.9099477e-07
 0.096389785   -0.99534369    -1.0460816e-06
 0.18592167    -0.98256457     2.9700257e-07
 0.34310514    -0.93929702     2.0081852e-06
 0.63551277    -0.77209038     6.799582e-06 
 0.96374464    -0.26682636     4.668042e-06 
 0.85001171     0.52676386    -2.106282e-06 
 0.5122385      0.85884327    -1.5003986e-06
 0.32263023     0.9465251     -6.3739765e-07
 0.21313539     0.97702265    -4.4031941e-07
 0.14729978     0.98909187    -2.9962806e-07
-0.18865865     0.98204273    -7.7353015e-08
-0.24360101     0.96987551    -5.9045639e-08
-0.31660461     0.94855762    -9.5790284e-08
-0.40422401     0.91466004    -9.6392014e-08
-0.52618814     0.8503682     -1.5022619e-07
-0.70513833     0.70906979    -2.6444457e-07
-0.89887738     0.43820024    -3.9741508e-07
-0.98590267     0.16731992    -3.4778162e-07
-0.99986815     0.01623854    -2.9781197e-07
-0.99792671    -0.064360484   -2.9975558e-07
-0.99349082    -0.11391223    -3.1849277e-07
-0.98872501    -0.14974263    -3.327599e-07 
-0.98382419    -0.17913669    -3.3390916e-07
-0.97861391    -0.20570578    -3.1675071e-07
-0.97282916    -0.23152409    -2.7617006e-07
-0.96613503    -0.25803697    -2.0396689e-07
-0.95804524    -0.28661698    -8.2774264e-08
-0.94772792    -0.31907961     1.2774264e-07
-0.93357885    -0.35837206     5.2224084e-07
-0.9122895     -0.40954593     1.3088276e-06
-0.87701392    -0.48046494     2.8274219e-06
-0.81512159    -0.57928985     5.3233111e-06
-0.7125684     -0.7016027      7.5841294e-06
-0.57951236    -0.81496346     6.5946929e-06
-0.45721138    -0.88935804     3.521264e-06 
-0.36861306    -0.92958289     1.220373e-06 
-0.30893576    -0.95108289     1.5726172e-07
-0.2677477     -0.96348906    -6.5143917e-07
-0.23739722    -0.97141266    -4.1642929e-07
-0.21357936    -0.97692573    -1.2931324e-06
-0.19386122    -0.98102897    -3.7245829e-07
-0.17680709    -0.98424554    -1.6323669e-06
-0.1614702     -0.98687756    -3.8198198e-07
-0.14715675    -0.98911321    -1.6009728e-06
-0.13329443    -0.99107647    -6.9016772e-07
-0.11933973    -0.99285346    -1.1942344e-06
-0.10470659    -0.99450314    -1.2030955e-06
-0.088665873   -0.99606144    -6.983974e-07 
-0.070197262   -0.99753314    -1.5682647e-06
-0.04766991    -0.99886316    -4.9801866e-07
-0.018162025   -0.99983507    -1.4886366e-06
 0.024435423   -0.99970138    -5.6924773e-07
 0.095965281   -0.99538469    -6.424778e-07 
 0.23943719    -0.97091186     4.1919645e-07
 0.75790066    -0.65236998     1.2753934e-05
 0.59606504     0.80293614    -4.0208042e-06
 0.28702423     0.95792335    -1.2596017e-06
 0.17695634     0.98421872    -5.0071509e-07
 0.11759874     0.99306118    -3.9691906e-07
 0.082033098    0.9966296     -2.477652e-07 
-0.17919216     0.98381412    -9.305748e-08 
-0.22972189     0.97325629    -6.4160695e-08
-0.29478702     0.95556301    -1.1987187e-07
-0.36820266     0.92974555    -1.0043516e-07
-0.46338439     0.88615739    -1.4772186e-07
-0.60336369     0.7974661     -2.204624e-07 
-0.79911667     0.60117596    -4.0026725e-07
-0.95428061     0.29891214    -4.7197841e-07
-0.99690115     0.078664459   -3.7651071e-07
-0.99937671    -0.035301264   -3.4784171e-07
-0.99495012    -0.10037061    -3.5748292e-07
-0.98943949    -0.14494637    -3.6961475e-07
-0.98358095    -0.18046761    -3.6490937e-07
-0.97721761    -0.21223985    -3.3396807e-07
-0.96997774    -0.24319378    -2.672156e-07 
-0.96131402    -0.27545488    -1.4737826e-07
-0.95033866    -0.31121773     6.4247985e-08
-0.93540311    -0.35358319     4.5700074e-07
-0.91319591    -0.4075208      1.2185278e-06
-0.87709415    -0.48031846     2.6317052e-06
-0.81562281    -0.57858396     4.8076354e-06
-0.71783626    -0.69621199     6.5551349e-06
-0.59487849    -0.8038156      5.6343983e-06
-0.48178822    -0.8762877      3.0796054e-06
-0.39811727    -0.91733456     1.1701624e-06
-0.34069142    -0.94017518     7.0140391e-09
-0.30069602    -0.95372003    -2.9772121e-07
-0.2713401     -0.96248353    -9.0311431e-07
-0.24863121    -0.96859825    -4.4425934e-07
-0.23029885    -0.97311997    -1.3566762e-06
-0.21502176    -0.97660923    -3.3153583e-07
-0.20197248    -0.97939122    -1.5933787e-06
-0.19060484    -0.98166686    -3.4549419e-07
-0.18052886    -0.98356968    -1.4882069e-06
-0.17145576    -0.98519182    -6.5563529e-07
-0.16315661    -0.98660016    -1.057708e-06 
-0.15544102    -0.98784518    -1.1510137e-06
-0.14814903    -0.98896503    -5.6863001e-07
-0.14112654    -0.98999155    -1.513328e-06 
-0.13424101    -0.99094874    -3.7987436e-07
-0.12735377    -0.99185735    -1.5023352e-06
-0.12033656    -0.99273318    -6.280892e-07 
-0.11365028    -0.9935208     -1.3195037e-06
-0.10411327    -0.99456543    -7.5455944e-07
-0.14946844    -0.98876649    -2.3895777e-06
 0.029478967    0.99956542    -2.2627382e-06
 0.019529762    0.99980927    -7.3417272e-07
 0.018042352    0.99983722    -3.1216496e-07
 0.015445613    0.99988073    -3.0724814e-07
 0.013252405    0.9999122     -1.7609271e-07
-0.17107126     0.98525864    -1.1217255e-07
-0.21832833     0.97587538    -6.7472925e-08
-0.27793196     0.96060073    -1.536466e-07 
-0.34229556     0.93959236    -1.0688869e-07
-0.42037424     0.90735084    -1.6513701e-07
-0.52884626     0.84871763    -1.9938571e-07
-0.69205916     0.7218408     -3.4799768e-07
-0.88646483     0.46279591    -5.5689725e-07
-0.98474711     0.17399158    -5.0172315e-07
-0.99996716     0.0081043262  -3.9949239e-07
-0.99674451    -0.080624789   -3.7414753e-07
-0.99056286    -0.13705938    -3.6805952e-07
-0.98358518    -0.1804444     -3.4662045e-07
-0.97578186    -0.21874598    -2.9258891e-07
-0.96660799    -0.25625971    -1.865686e-07 
-0.9551304     -0.29618564     9.0107175e-09
-0.93968403    -0.34204376     3.7712303e-07
-0.91703331    -0.39881057     1.0843673e-06
-0.88091105    -0.47328189     2.3652219e-06
-0.82098961    -0.57094318     4.248885e-06 
-0.72846186    -0.68508637     5.6631247e-06
-0.61406416    -0.78925616     4.8823063e-06
-0.50793505    -0.86139536     2.7723802e-06
-0.42766368    -0.90393794     1.0491083e-06
-0.37151375    -0.92842746     1.3285045e-07
-0.33200541    -0.94327748    -4.7672637e-07
-0.3030144     -0.952986      -4.4543501e-07
-0.28079057    -0.95976907    -1.0094673e-06
-0.26317465    -0.9647482     -4.089886e-07 
-0.24891542    -0.96852523    -1.350016e-06 
-0.23725811    -0.97144663    -2.730107e-07 
-0.22773328    -0.97372353    -1.4966652e-06
-0.22005087    -0.97548842    -3.0629329e-07
-0.2140408     -0.9768247     -1.3336077e-06
-0.20963496    -0.97777975    -6.1373623e-07
-0.20685993    -0.97837055    -9.0638986e-07
-0.20585534    -0.97858244    -1.0662718e-06
-0.20692019    -0.97835785    -4.6237875e-07
-0.21059152    -0.97757417    -1.3823637e-06
-0.21783563    -0.97598547    -3.0816543e-07
-0.2304119     -0.97309321    -1.3632234e-06
-0.25184327    -0.96776801    -5.566913e-07 
-0.28979224    -0.9570896     -1.1709008e-06
-0.36756214    -0.92999893    -1.086761e-06 
-0.61753988    -0.78653961    -2.058576e-06 
-0.57137817     0.82068694     1.5166123e-06
-0.23178843     0.97276622    -2.3351888e-07
-0.13427889     0.99094355    -8.8589388e-08
-0.08315035     0.99653703    -1.8697341e-07
-0.053523164    0.99856663    -9.4372524e-08
-0.16372178     0.98650652    -1.3516431e-07
-0.20839335     0.97804511    -6.7210387e-08
-0.2639564      0.96453464    -1.9931964e-07
-0.322182       0.94667774    -1.1080083e-07
-0.38932678     0.92109972    -1.9966778e-07
-0.47635034     0.87925559    -1.9761295e-07
-0.60444069     0.79665017    -3.0784511e-07
-0.78948146     0.61377436    -5.4511742e-07
-0.95046151     0.31084234    -6.7738563e-07
-0.99732828     0.073049784   -5.1786316e-07
-0.99865973    -0.051756367   -4.3906337e-07
-0.99211657    -0.1253186     -4.0819506e-07
-0.98384112    -0.17904359    -3.6576935e-07
-0.9741928     -0.22571747    -2.7360011e-07
-0.96234477    -0.27183178    -9.4011419e-08
-0.9466579     -0.32224041     2.466717e-07 
-0.92402476    -0.38233259     8.9238375e-07
-0.88860059    -0.45868176     2.0377227e-06
-0.83107781    -0.55615616     3.6754013e-06
-0.7439357     -0.66825116     4.8860115e-06
-0.63667774    -0.77112997     4.2916349e-06
-0.53560227    -0.84447038     2.5210916e-06
-0.45730352    -0.88931066     1.0274148e-06
-0.40143093    -0.91588932     9.4837304e-08
-0.36164612    -0.93231547    -2.6790582e-07
-0.33235404    -0.94315469    -6.721005e-07 
-0.30998406    -0.95074177    -4.5580549e-07
-0.29244682    -0.95628178    -1.0341968e-06
-0.278528      -0.96042812    -3.3322002e-07
-0.26750714    -0.96355587    -1.2907425e-06
-0.25895298    -0.96588993    -2.0380813e-07
-0.25261557    -0.96756673    -1.3599896e-06
-0.24837701    -0.96866345    -2.6617079e-07
-0.24622466    -0.96921277    -1.1574569e-06
-0.2462554     -0.96920496    -5.6488682e-07
-0.24868934    -0.96858329    -7.5893581e-07
-0.25391117    -0.96722752    -9.5545579e-07
-0.26254854    -0.96491879    -3.8962605e-07
-0.27559918    -0.96127266    -1.1970562e-06
-0.29469597    -0.95559108    -2.9096958e-07
-0.32259297    -0.94653779    -1.1435843e-06
-0.36424091    -0.93130475    -5.0495993e-07
-0.42957091    -0.90303314    -9.423801e-07 
-0.54040837    -0.84140289    -8.6875087e-07
-0.77466625    -0.63237029    -1.2325447e-06
-0.79866737     0.60177279     1.5945229e-06
-0.42175633     0.90670919     3.8758037e-07
-0.25755975     0.9662624      7.7231284e-08
-0.16753912     0.98586541    -5.9395351e-08
-0.1125921      0.99364132    -1.6147814e-08
-0.1566944      0.98764712    -1.6265209e-07
-0.19919775     0.97995931    -6.1054656e-08
-0.25157806     0.96783704    -2.6079235e-07
-0.30538556     0.95222878    -1.0735604e-07
-0.36524656     0.93091083    -2.5180921e-07