# OOMMF: rectangular mesh v1.0
# Segment count: 1
# Begin: Segment
# Begin: Header
# Title: Oxs_UZeeman::Field
# Desc: Oxs vector field output
# Desc:  MIF source file: E:/cyyou_Data/OOMMF_STT_RUN/Test/alpha=0.01A/SyF3.mif
# Desc:  Iteration: 43027, State id: 320510
# Desc:  Stage: 0, Stage iteration: 43027
# Desc:  Stage simulation time: 7.06734e-009 s
# Desc:  Total simulation time: 7.06734e-009 s
# meshunit: m
# valueunit: A/m
# valuemultiplier: 1.0
# xmin: -3e-008
# ymin: -2e-008
# zmin: 0
# xmax: 3e-008
# ymax: 2e-008
# zmax: 8.000000000000001e-009
# ValueRangeMaxMag: 795.7747154594767
# ValueRangeMinMag: 794.9789407440172
# meshtype: rectangular
# xbase: -2.95e-008
# ybase: -1.95e-008
# zbase: 5e-010
# xstepsize: 1e-009
# ystepsize: 1e-009
# zstepsize: 1e-009
# xnodes: 60
# ynodes: 40
# znodes: 8
# End: Header
# Begin: Data Text
    0.0000000e+000  0.0000000e+000  0.0000000e+000
  0.0000000e+000  0.0000000e+000  0.0000000e+000
  0.0000000e+000  0.0000000e+000  0.0000000e+000
  0.0000000e+000  0.0000000e+000  0.0000000e+000
  0.0000000e+000  0.0000000e+000  0.0000000e+000
  0.0000000e+000  0.0000000e+000  0.0000000e+000
  0.0000000e+000  0.0000000e+000  0.0000000e+000
  0.0000000e+000  0.0000000e+000  0.0000000e+000
  0.0000000e+000  0.0000000e+000  0.0000000e+000
  0.0000000e+000  0.0000000e+000  0.0000000e+000
  0.0000000e+000  0.0000000e+000  0.0000000e+000
  0.0000000e+000  0.0000000e+000  0.0000000e+000
  0.0000000e+000  0.0000000e+000  0.0000000e+000
  0.0000000e+000  0.0000000e+000  0.0000000e+000
  0.0000000e+000  0.0000000e+000  0.0000000e+000
  0.0000000e+000  0.0000000e+000  0.0000000e+000
  0.0000000e+000  0.0000000e+000  0.0000000e+000
  0.0000000e+000  0.0000000e+000  0.0000000e+000
  0.0000000e+000  0.0000000e+000  0.0000000e+000
  0.0000000e+000  0.0000000e+000  0.0000000e+000
  0.0000000e+000  0.0000000e+000  0.0000000e+000
  0.0000000e+000  0.0000000e+000  0.0000000e+000
  0.0000000e+000  0.0000000e+000  0.0000000e+000
  1.1699644e-008 -2.6023719e-009  0.0000000e+000
  1.1699341e-008 -2.2001642e-009  0.0000000e+000
  1.1699457e-008 -1.7993175e-009  0.0000000e+000
  1.1699929e-008 -1.4045556e-009  0.0000000e+000
  1.1695528e-008 -1.0020005e-009  0.0000000e+000
  1.1698319e-008 -6.0117158e-010  0.0000000e+000
  1.1700340e-008 -1.9904571e-010  0.0000000e+000
  1.1700340e-008  1.9904571e-010  0.0000000e+000
  1.1698319e-008  6.0117158e-010  0.0000000e+000
  1.1695528e-008  1.0020005e-009  0.0000000e+000
  1.1699929e-008  1.4045556e-009  0.0000000e+000
  1.1699457e-008  1.7993175e-009  0.0000000e+000
  1.1699341e-008  2.2001642e-009  0.0000000e+000
  1.1699644e-008  2.6023719e-009  0.0000000e+000
  0.0000000e+000  0.0000000e+000  0.0000000e+000
  0.0000000e+000  0.0000000e+000  0.0000000e+000
  0.0000000e+000  0.0000000e+000  0.0000000e+000
  0.0000000e+000  0.0000000e+000  0.0000000e+000
  0.0000000e+000  0.0000000e+000  0.0000000e+000
  0.0000000e+000  0.0000000e+000  0.0000000e+000
  0.0000000e+000  0.0000000e+000  0.0000000e+000
  0.0000000e+000  0.0000000e+000  0.0000000e+000
  0.0000000e+000  0.0000000e+000  0.0000000e+000
  0.0000000e+000  0.0000000e+000  0.0000000e+000
  0.0000000e+000  0.0000000e+000  0.0000000e+000
  0.0000000e+000  0.0000000e+000  0.0000000e+000
  0.0000000e+000  0.0000000e+000  0.0000000e+000
  0.0000000e+000  0.0000000e+000  0.0000000e+000
  0.0000000e+000  0.0000000e+000  0.0000000e+000
  0.0000000e+000  0.0000000e+000  0.0000000e+000
  0.0000000e+000  0.0000000e+000  0.0000000e+000
  0.0000000e+000  0.0000000e+000  0.0000000e+000
  0.0000000e+000  0.0000000e+000  0.0000000e+000
  0.0000000e+000  0.0000000e+000  0.0000000e+000
  0.0000000e+000  0.0000000e+000  0.0000000e+000
  0.0000000e+000  0.0000000e+000  0.0000000e+000
  0.0000000e+000  0.0000000e+000  0.0000000e+000
  0.0000000e+000  0.0000000e+000  0.0000000e+000
  0.0000000e+000  0.0000000e+000  0.0000000e+000
  0.0000000e+000  0.0000000e+000  0.0000000e+000
  0.0000000e+000  0.0000000e+000  0.0000000e+000
  0.0000000e+000  0.0000000e+000  0.0000000e+000
  0.0000000e+000  0.0000000e+000  0.0000000e+000
  0.0000000e+000  0.0000000e+000  0.0000000e+000
  0.0000000e+000  0.0000000e+000  0.0000000e+000
  0.0000000e+000  0.0000000e+000  0.0000000e+000
  0.0000000e+000  0.0000000e+000  0.0000000e+000
  0.0000000e+000  0.0000000e+000  0.0000000e+000
  0.0000000e+000  0.0000000e+000  0.0000000e+000
  0.0000000e+000  0.0000000e+000  0.0000000e+000
  0.0000000e+000  0.0000000e+000  0.0000000e+000
  0.0000000e+000  0.0000000e+000  0.0000000e+000
  0.0000000e+000  0.0000000e+000  0.0000000e+000
  0.0000000e+000  0.0000000e+000  0.0000000e+000
  0.0000000e+000  0.0000000e+000  0.0000000e+000
  0.0000000e+000  0.0000000e+000  0.0000000e+000
  1.1098406e-008 -4.2005153e-009  0.0000000e+000
  1.1098348e-008 -3.8008364e-009  0.0000000e+000
  1.1098523e-008 -3.4003984e-009  0.0000000e+000
  1.1099047e-008 -2.9973572e-009  0.0000000e+000
  1.1098482e-008 -2.6028656e-009  0.0000000e+000
  1.1098812e-008 -2.1999075e-009  0.0000000e+000
  1.1098384e-008 -1.7992783e-009  0.0000000e+000
  1.1097879e-008 -1.4042374e-009  0.0000000e+000
  1.1098779e-008 -1.0018509e-009  0.0000000e+000
  1.1098731e-008 -6.0112021e-010  0.0000000e+000
  1.1098591e-008 -1.9886860e-010  0.0000000e+000
  1.1098591e-008  1.9886860e-010  0.0000000e+000
  1.1098731e-008  6.0112021e-010  0.0000000e+000
  1.1098779e-008  1.0018509e-009  0.0000000e+000
  1.1097879e-008  1.4042374e-009  0.0000000e+000
  1.1098384e-008  1.7992783e-009  0.0000000e+000
  1.1098812e-008  2.1999075e-009  0.0000000e+000
  1.1098482e-008  2.6028656e-009  0.0000000e+000
  1.1099047e-008  2.9973572e-009  0.0000000e+000
  1.1098523e-008  3.4003984e-009  0.0000000e+000
  1.1098348e-008  3.8008364e-009  0.0000000e+000
  1.1098406e-008  4.2005153e-009  0.0000000e+000
  0.0000000e+000  0.0000000e+000  0.0000000e+000
  0.0000000e+000  0.0000000e+000  0.0000000e+000
  0.0000000e+000  0.0000000e+000  0.0000000e+000
  0.0000000e+000  0.0000000e+000  0.0000000e+000
  0.0000000e+000  0.0000000e+000  0.0000000e+000
  0.0000000e+000  0.0000000e+000  0.0000000e+000
  0.0000000e+000  0.0000000e+000  0.0000000e+000
  0.0000000e+000  0.0000000e+000  0.0000000e+000
  0.0000000e+000  0.0000000e+000  0.0000000e+000
  0.0000000e+000  0.0000000e+000  0.0000000e+000
  0.0000000e+000  0.0000000e+000  0.0000000e+000
  0.0000000e+000  0.0000000e+000  0.0000000e+000
  0.0000000e+000  0.0000000e+000  0.0000000e+000
  0.0000000e+000  0.0000000e+000  0.0000000e+000
  0.0000000e+000  0.0000000e+000  0.0000000e+000
  0.0000000e+000  0.0000000e+000  0.0000000e+000
  0.0000000e+000  0.0000000e+000  0.0000000e+000
  0.0000000e+000  0.0000000e+000  0.0000000e+000
  0.0000000e+000  0.0000000e+000  0.0000000e+000
  0.0000000e+000  0.0000000e+000  0.0000000e+000
  0.0000000e+000  0.0000000e+000  0.0000000e+000
  0.0000000e+000  0.0000000e+000  0.0000000e+000
  0.0000000e+000  0.0000000e+000  0.0000000e+000
  0.0000000e+000  0.0000000e+000  0.0000000e+000
  0.0000000e+000  0.0000000e+000  0.0000000e+000
  0.0000000e+000  0.0000000e+000  0.0000000e+000
  0.0000000e+000  0.0000000e+000  0.0000000e+000
  0.0000000e+000  0.0000000e+000  0.0000000e+000
  0.0000000e+000  0.0000000e+000  0.0000000e+000
  0.0000000e+000  0.0000000e+000  0.0000000e+000
  0.0000000e+000  0.0000000e+000  0.0000000e+000
  0.0000000e+000  0.0000000e+000  0.0000000e+000
  0.0000000e+000  0.0000000e+000  0.0000000e+000
  0.0000000e+000  0.0000000e+000  0.0000000e+000
  1.0497626e-008 -5.7996929e-009  0.0000000e+000
  1.0498022e-008 -5.4003281e-009  0.0000000e+000
  1.0497724e-008 -4.9981523e-009  0.0000000e+000
  1.0497613e-008 -4.5975170e-009  0.0000000e+000
  1.0498717e-008 -4.1998359e-009  0.0000000e+000
  1.0497261e-008 -3.8001663e-009  0.0000000e+000
  1.0497542e-008 -3.3993702e-009  0.0000000e+000
  1.0499201e-008 -2.9966214e-009  0.0000000e+000
  1.0497198e-008 -2.6020593e-009  0.0000000e+000
  1.0497991e-008 -2.1999935e-009  0.0000000e+000
  1.0498604e-008 -1.7992582e-009  0.0000000e+000
  1.0498512e-008 -1.4045996e-009  0.0000000e+000
  1.0497892e-008 -1.0018473e-009  0.0000000e+000
  1.0497438e-008 -6.0112325e-010  0.0000000e+000
  1.0497630e-008 -1.9899092e-010  0.0000000e+000
  1.0497630e-008  1.9899092e-010  0.0000000e+000
  1.0497438e-008  6.0112325e-010  0.0000000e+000
  1.0497892e-008  1.0018473e-009  0.0000000e+000
  1.0498512e-008  1.4045996e-009  0.0000000e+000
  1.0498604e-008  1.7992582e-009  0.0000000e+000
  1.0497991e-008  2.1999935e-009  0.0000000e+000
  1.0497198e-008  2.6020593e-009  0.0000000e+000
  1.0499201e-008  2.9966214e-009  0.0000000e+000
  1.0497542e-008  3.3993702e-009  0.0000000e+000
  1.0497261e-008  3.8001663e-009  0.0000000e+000
  1.0498717e-008  4.1998359e-009  0.0000000e+000
  1.0497613e-008  4.5975170e-009  0.0000000e+000
  1.0497724e-008  4.9981523e-009  0.0000000e+000
  1.0498022e-008  5.4003281e-009  0.0000000e+000
  1.0497626e-008  5.7996929e-009  0.0000000e+000
  0.0000000e+000  0.0000000e+000  0.0000000e+000
  0.0000000e+000  0.0000000e+000  0.0000000e+000
  0.0000000e+000  0.0000000e+000  0.0000000e+000
  0.0000000e+000  0.0000000e+000  0.0000000e+000
  0.0000000e+000  0.0000000e+000  0.0000000e+000
  0.0000000e+000  0.0000000e+000  0.0000000e+000
  0.0000000e+000  0.0000000e+000  0.0000000e+000
  0.0000000e+000  0.0000000e+000  0.0000000e+000
  0.0000000e+000  0.0000000e+000  0.0000000e+000
  0.0000000e+000  0.0000000e+000  0.0000000e+000
  0.0000000e+000  0.0000000e+000  0.0000000e+000
  0.0000000e+000  0.0000000e+000  0.0000000e+000
  0.0000000e+000  0.0000000e+000  0.0000000e+000
  0.0000000e+000  0.0000000e+000  0.0000000e+000
  0.0000000e+000  0.0000000e+000  0.0000000e+000
  0.0000000e+000  0.0000000e+000  0.0000000e+000
  0.0000000e+000  0.0000000e+000  0.0000000e+000
  0.0000000e+000  0.0000000e+000  0.0000000e+000
  0.0000000e+000  0.0000000e+000  0.0000000e+000
  0.0000000e+000  0.0000000e+000  0.0000000e+000
  0.0000000e+000  0.0000000e+000  0.0000000e+000
  0.0000000e+000  0.0000000e+000  0.0000000e+000
  0.0000000e+000  0.0000000e+000  0.0000000e+000
  0.0000000e+000  0.0000000e+000  0.0000000e+000
  0.0000000e+000  0.0000000e+000  0.0000000e+000
  0.0000000e+000  0.0000000e+000  0.0000000e+000
  0.0000000e+000  0.0000000e+000  0.0000000e+000
  0.0000000e+000  0.0000000e+000  0.0000000e+000
  9.9014266e-009 -6.6007682e-009  0.0000000e+000
  9.9004427e-009 -6.2017655e-009  0.0000000e+000
  9.9016817e-009 -5.7992964e-009  0.0000000e+000
  9.9006506e-009 -5.4020004e-009  0.0000000e+000
  9.9006760e-009 -4.9981702e-009  0.0000000e+000
  9.9008588e-009 -4.6168857e-009  0.0000000e+000
  9.9000473e-009 -4.1998139e-009  0.0000000e+000
  9.9002283e-009 -3.8001848e-009  0.0000000e+000
  9.9003708e-009 -3.3993986e-009  0.0000000e+000
  9.9020863e-009 -2.9965674e-009  0.0000000e+000
  9.9006315e-009 -2.6019733e-009  0.0000000e+000
  9.9031476e-009 -2.1995036e-009  0.0000000e+000
  9.9013029e-009 -1.7985840e-009  0.0000000e+000
  9.9011708e-009 -1.4039207e-009  0.0000000e+000
  9.9014072e-009 -1.0018345e-009  0.0000000e+000
  9.9008682e-009 -6.0102848e-010  0.0000000e+000
  9.9009452e-009 -1.9875775e-010  0.0000000e+000
  9.9009452e-009  1.9875775e-010  0.0000000e+000
  9.9008682e-009  6.0102848e-010  0.0000000e+000
  9.9014072e-009  1.0018345e-009  0.0000000e+000
  9.9011708e-009  1.4039207e-009  0.0000000e+000
  9.9013029e-009  1.7985840e-009  0.0000000e+000
  9.9031476e-009  2.1995036e-009  0.0000000e+000
  9.9006315e-009  2.6019733e-009  0.0000000e+000
  9.9020863e-009  2.9965674e-009  0.0000000e+000
  9.9003708e-009  3.3993986e-009  0.0000000e+000
  9.9002283e-009  3.8001848e-009  0.0000000e+000
  9.9000473e-009  4.1998139e-009  0.0000000e+000
  9.9008588e-009  4.6168857e-009  0.0000000e+000
  9.9006760e-009  4.9981702e-009  0.0000000e+000
  9.9006506e-009  5.4020004e-009  0.0000000e+000
  9.9016817e-009  5.7992964e-009  0.0000000e+000
  9.9004427e-009  6.2017655e-009  0.0000000e+000
  9.9014266e-009  6.6007682e-009  0.0000000e+000
  0.0000000e+000  0.0000000e+000  0.0000000e+000
  0.0000000e+000  0.0000000e+000  0.0000000e+000
  0.0000000e+000  0.0000000e+000  0.0000000e+000
  0.0000000e+000  0.0000000e+000  0.0000000e+000
  0.0000000e+000  0.0000000e+000  0.0000000e+000
  0.0000000e+000  0.0000000e+000  0.0000000e+000
  0.0000000e+000  0.0000000e+000  0.0000000e+000
  0.0000000e+000  0.0000000e+000  0.0000000e+000
  0.0000000e+000  0.0000000e+000  0.0000000e+000
  0.0000000e+000  0.0000000e+000  0.0000000e+000
  0.0000000e+000  0.0000000e+000  0.0000000e+000
  0.0000000e+000  0.0000000e+000  0.0000000e+000
  0.0000000e+000  0.0000000e+000  0.0000000e+000
  0.0000000e+000  0.0000000e+000  0.0000000e+000
  0.0000000e+000  0.0000000e+000  0.0000000e+000
  0.0000000e+000  0.0000000e+000  0.0000000e+000
  0.0000000e+000  0.0000000e+000  0.0000000e+000
  0.0000000e+000  0.0000000e+000  0.0000000e+000
  0.0000000e+000  0.0000000e+000  0.0000000e+000
  0.0000000e+000  0.0000000e+000  0.0000000e+000
  0.0000000e+000  0.0000000e+000  0.0000000e+000
  0.0000000e+000  0.0000000e+000  0.0000000e+000
  0.0000000e+000  0.0000000e+000  0.0000000e+000
  0.0000000e+000  0.0000000e+000  0.0000000e+000
  9.2998596e-009 -7.3991328e-009  0.0000000e+000
  9.3021211e-009 -7.0001747e-009  0.0000000e+000
  9.3012454e-009 -6.6011119e-009  0.0000000e+000
  9.3013226e-009 -6.2016853e-009  0.0000000e+000
  9.3027836e-009 -5.7992353e-009  0.0000000e+000
  9.3001802e-009 -5.4002644e-009  0.0000000e+000
  9.3004521e-009 -4.9982499e-009  0.0000000e+000
  9.2998158e-009 -4.5975073e-009  0.0000000e+000
  9.2997732e-009 -4.1998472e-009  0.0000000e+000
  9.2998342e-009 -3.8001126e-009  0.0000000e+000
  9.2999416e-009 -3.3993785e-009  0.0000000e+000
  9.3000712e-009 -2.9964627e-009  0.0000000e+000
  9.3009970e-009 -2.6019814e-009  0.0000000e+000
  9.3003931e-009 -2.1993244e-009  0.0000000e+000
  9.3005020e-009 -1.7985680e-009  0.0000000e+000
  9.3006414e-009 -1.4039159e-009  0.0000000e+000
  9.3008060e-009 -1.0010891e-009  0.0000000e+000
  9.3009733e-009 -6.0109266e-010  0.0000000e+000
  9.3003162e-009 -1.9895755e-010  0.0000000e+000
  9.3003162e-009  1.9895755e-010  0.0000000e+000
  9.3009733e-009  6.0109266e-010  0.0000000e+000
  9.3008060e-009  1.0010891e-009  0.0000000e+000
  9.3006414e-009  1.4039159e-009  0.0000000e+000
  9.3005020e-009  1.7985680e-009  0.0000000e+000
  9.3003931e-009  2.1993244e-009  0.0000000e+000
  9.3009970e-009  2.6019814e-009  0.0000000e+000
  9.3000712e-009  2.9964627e-009  0.0000000e+000
  9.2999416e-009  3.3993785e-009  0.0000000e+000
  9.2998342e-009  3.8001126e-009  0.0000000e+000
  9.2997732e-009  4.1998472e-009  0.0000000e+000
  9.2998158e-009  4.5975073e-009  0.0000000e+000
  9.3004521e-009  4.9982499e-009  0.0000000e+000
  9.3001802e-009  5.4002644e-009  0.0000000e+000
  9.3027836e-009  5.7992353e-009  0.0000000e+000
  9.3013226e-009  6.2016853e-009  0.0000000e+000
  9.3012454e-009  6.6011119e-009  0.0000000e+000
  9.3021211e-009  7.0001747e-009  0.0000000e+000
  9.2998596e-009  7.3991328e-009  0.0000000e+000
  0.0000000e+000  0.0000000e+000  0.0000000e+000
  0.0000000e+000  0.0000000e+000  0.0000000e+000
  0.0000000e+000  0.0000000e+000  0.0000000e+000
  0.0000000e+000  0.0000000e+000  0.0000000e+000
  0.0000000e+000  0.0000000e+000  0.0000000e+000
  0.0000000e+000  0.0000000e+000  0.0000000e+000
  0.0000000e+000  0.0000000e+000  0.0000000e+000
  0.0000000e+000  0.0000000e+000  0.0000000e+000
  0.0000000e+000  0.0000000e+000  0.0000000e+000
  0.0000000e+000  0.0000000e+000  0.0000000e+000
  0.0000000e+000  0.0000000e+000  0.0000000e+000
  0.0000000e+000  0.0000000e+000  0.0000000e+000
  0.0000000e+000  0.0000000e+000  0.0000000e+000
  0.0000000e+000  0.0000000e+000  0.0000000e+000
  0.0000000e+000  0.0000000e+000  0.0000000e+000
  0.0000000e+000  0.0000000e+000  0.0000000e+000
  0.0000000e+000  0.0000000e+000  0.0000000e+000
  0.0000000e+000  0.0000000e+000  0.0000000e+000
  0.0000000e+000  0.0000000e+000  0.0000000e+000
  0.0000000e+000  0.0000000e+000  0.0000000e+000
  8.7028084e-009 -8.1985279e-009  0.0000000e+000
  8.7030660e-009 -7.7985627e-009  0.0000000e+000
  8.7029590e-009 -7.3991865e-009  0.0000000e+000
  8.7031015e-009 -6.9994610e-009  0.0000000e+000
  8.7029891e-009 -6.6013346e-009  0.0000000e+000
  8.7031576e-009 -6.2018247e-009  0.0000000e+000
  8.7027895e-009 -5.7992655e-009  0.0000000e+000
  8.7030874e-009 -5.4525595e-009  0.0000000e+000
  8.7025382e-009 -4.9990574e-009  0.0000000e+000
  8.7026128e-009 -4.5978590e-009  0.0000000e+000
  8.7026483e-009 -4.1999703e-009  0.0000000e+000
  8.7083944e-009 -3.8001431e-009  0.0000000e+000
  8.7100402e-009 -3.3994046e-009  0.0000000e+000
  8.7036822e-009 -2.9965502e-009  0.0000000e+000
  8.7038526e-009 -2.6019890e-009  0.0000000e+000
  8.7031937e-009 -2.1992247e-009  0.0000000e+000
  8.7032806e-009 -1.7985248e-009  0.0000000e+000
  8.7033835e-009 -1.4038994e-009  0.0000000e+000
  8.7034940e-009 -1.0010904e-009  0.0000000e+000
  8.7035938e-009 -6.0037308e-010  0.0000000e+000
  8.7036552e-009 -1.9699482e-010  0.0000000e+000
  8.7036552e-009  1.9699482e-010  0.0000000e+000
  8.7035938e-009  6.0037308e-010  0.0000000e+000
  8.7034940e-009  1.0010904e-009  0.0000000e+000
  8.7033835e-009  1.4038994e-009  0.0000000e+000
  8.7032806e-009  1.7985248e-009  0.0000000e+000
  8.7031937e-009  2.1992247e-009  0.0000000e+000
  8.7038526e-009  2.6019890e-009  0.0000000e+000
  8.7036822e-009  2.9965502e-009  0.0000000e+000
  8.7100402e-009  3.3994046e-009  0.0000000e+000
  8.7083944e-009  3.8001431e-009  0.0000000e+000
  8.7026483e-009  4.1999703e-009  0.0000000e+000
  8.7026128e-009  4.5978590e-009  0.0000000e+000
  8.7025382e-009  4.9990574e-009  0.0000000e+000
  8.7030874e-009  5.4525595e-009  0.0000000e+000
  8.7027895e-009  5.7992655e-009  0.0000000e+000
  8.7031576e-009  6.2018247e-009  0.0000000e+000
  8.7029891e-009  6.6013346e-009  0.0000000e+000
  8.7031015e-009  6.9994610e-009  0.0000000e+000
  8.7029590e-009  7.3991865e-009  0.0000000e+000
  8.7030660e-009  7.7985627e-009  0.0000000e+000
  8.7028084e-009  8.1985279e-009  0.0000000e+000
  0.0000000e+000  0.0000000e+000  0.0000000e+000
  0.0000000e+000  0.0000000e+000  0.0000000e+000
  0.0000000e+000  0.0000000e+000  0.0000000e+000
  0.0000000e+000  0.0000000e+000  0.0000000e+000
  0.0000000e+000  0.0000000e+000  0.0000000e+000
  0.0000000e+000  0.0000000e+000  0.0000000e+000
  0.0000000e+000  0.0000000e+000  0.0000000e+000
  0.0000000e+000  0.0000000e+000  0.0000000e+000
  0.0000000e+000  0.0000000e+000  0.0000000e+000
  0.0000000e+000  0.0000000e+000  0.0000000e+000
  0.0000000e+000  0.0000000e+000  0.0000000e+000
  0.0000000e+000  0.0000000e+000  0.0000000e+000
  0.0000000e+000  0.0000000e+000  0.0000000e+000
  0.0000000e+000  0.0000000e+000  0.0000000e+000
  0.0000000e+000  0.0000000e+000  0.0000000e+000
  0.0000000e+000  0.0000000e+000  0.0000000e+000
  0.0000000e+000  0.0000000e+000  0.0000000e+000
  8.1023620e-009 -8.6010536e-009  0.0000000e+000
  8.0996816e-009 -8.1985518e-009  0.0000000e+000
  8.1011636e-009 -7.7983349e-009  0.0000000e+000
  8.0997166e-009 -7.3992380e-009  0.0000000e+000
  8.0997639e-009 -6.9995493e-009  0.0000000e+000
  8.0997970e-009 -6.6011132e-009  0.0000000e+000
  8.0998799e-009 -6.2018499e-009  0.0000000e+000
  8.0999183e-009 -5.7992496e-009  0.0000000e+000
  8.0992104e-009 -5.4002924e-009  0.0000000e+000
  8.0994325e-009 -4.9981895e-009  0.0000000e+000
  8.0994801e-009 -4.5976840e-009  0.0000000e+000
  8.1002742e-009 -4.1999526e-009  0.0000000e+000
  8.1003459e-009 -3.8001573e-009  0.0000000e+000
  8.1004402e-009 -3.3994214e-009  0.0000000e+000
  8.1005605e-009 -2.9966224e-009  0.0000000e+000
  8.1007097e-009 -2.6019521e-009  0.0000000e+000
  8.1000241e-009 -2.1991944e-009  0.0000000e+000
  8.1000907e-009 -1.7984978e-009  0.0000000e+000
  8.1001649e-009 -1.4038840e-009  0.0000000e+000
  8.1002393e-009 -1.0010860e-009  0.0000000e+000
  8.1003017e-009 -5.9988609e-010  0.0000000e+000
  8.1003381e-009 -1.9901501e-010  0.0000000e+000
  8.1003381e-009  1.9901501e-010  0.0000000e+000
  8.1003017e-009  5.9988609e-010  0.0000000e+000
  8.1002393e-009  1.0010860e-009  0.0000000e+000
  8.1001649e-009  1.4038840e-009  0.0000000e+000
  8.1000907e-009  1.7984978e-009  0.0000000e+000
  8.1000241e-009  2.1991944e-009  0.0000000e+000
  8.1007097e-009  2.6019521e-009  0.0000000e+000
  8.1005605e-009  2.9966224e-009  0.0000000e+000
  8.1004402e-009  3.3994214e-009  0.0000000e+000
  8.1003459e-009  3.8001573e-009  0.0000000e+000
  8.1002742e-009  4.1999526e-009  0.0000000e+000
  8.0994801e-009  4.5976840e-009  0.0000000e+000
  8.0994325e-009  4.9981895e-009  0.0000000e+000
  8.0992104e-009  5.4002924e-009  0.0000000e+000
  8.0999183e-009  5.7992496e-009  0.0000000e+000
  8.0998799e-009  6.2018499e-009  0.0000000e+000
  8.0997970e-009  6.6011132e-009  0.0000000e+000
  8.0997639e-009  6.9995493e-009  0.0000000e+000
  8.0997166e-009  7.3992380e-009  0.0000000e+000
  8.1011636e-009  7.7983349e-009  0.0000000e+000
  8.0996816e-009  8.1985518e-009  0.0000000e+000
  8.1023620e-009  8.6010536e-009  0.0000000e+000
  0.0000000e+000  0.0000000e+000  0.0000000e+000
  0.0000000e+000  0.0000000e+000  0.0000000e+000
  0.0000000e+000  0.0000000e+000  0.0000000e+000
  0.0000000e+000  0.0000000e+000  0.0000000e+000
  0.0000000e+000  0.0000000e+000  0.0000000e+000
  0.0000000e+000  0.0000000e+000  0.0000000e+000
  0.0000000e+000  0.0000000e+000  0.0000000e+000
  0.0000000e+000  0.0000000e+000  0.0000000e+000
  0.0000000e+000  0.0000000e+000  0.0000000e+000
  0.0000000e+000  0.0000000e+000  0.0000000e+000
  0.0000000e+000  0.0000000e+000  0.0000000e+000
  0.0000000e+000  0.0000000e+000  0.0000000e+000
  0.0000000e+000  0.0000000e+000  0.0000000e+000
  0.0000000e+000  0.0000000e+000  0.0000000e+000
  0.0000000e+000  0.0000000e+000  0.0000000e+000
  7.5003944e-009 -9.0003864e-009  0.0000000e+000
  7.5036472e-009 -8.6051753e-009  0.0000000e+000
  7.5004219e-009 -8.1986507e-009  0.0000000e+000
  7.5005567e-009 -7.7985815e-009  0.0000000e+000
  7.5003950e-009 -7.3992789e-009  0.0000000e+000
  7.5002873e-009 -6.9994914e-009  0.0000000e+000
  7.5005653e-009 -6.6010836e-009  0.0000000e+000
  7.5006589e-009 -6.2018401e-009  0.0000000e+000
  7.4999070e-009 -5.7992866e-009  0.0000000e+000
  7.4998927e-009 -5.4003298e-009  0.0000000e+000
  7.4999252e-009 -4.9982117e-009  0.0000000e+000
  7.5008770e-009 -4.5975095e-009  0.0000000e+000
  7.5162914e-009 -4.1999014e-009  0.0000000e+000
  7.5009927e-009 -3.8001454e-009  0.0000000e+000
  7.5010770e-009 -3.3994213e-009  0.0000000e+000
  7.5011818e-009 -2.9966203e-009  0.0000000e+000
  7.5013079e-009 -2.6019762e-009  0.0000000e+000
  7.5006147e-009 -2.1991725e-009  0.0000000e+000
  7.5006643e-009 -1.7984284e-009  0.0000000e+000
  7.5007172e-009 -1.4037511e-009  0.0000000e+000
  7.5007678e-009 -1.0008706e-009  0.0000000e+000
  7.5008084e-009 -6.0083442e-010  0.0000000e+000
  7.5008312e-009 -1.9901587e-010  0.0000000e+000
  7.5008312e-009  1.9901587e-010  0.0000000e+000
  7.5008084e-009  6.0083442e-010  0.0000000e+000
  7.5007678e-009  1.0008706e-009  0.0000000e+000
  7.5007172e-009  1.4037511e-009  0.0000000e+000
  7.5006643e-009  1.7984284e-009  0.0000000e+000
  7.5006147e-009  2.1991725e-009  0.0000000e+000
  7.5013079e-009  2.6019762e-009  0.0000000e+000
  7.5011818e-009  2.9966203e-009  0.0000000e+000
  7.5010770e-009  3.3994213e-009  0.0000000e+000
  7.5009927e-009  3.8001454e-009  0.0000000e+000
  7.5162914e-009  4.1999014e-009  0.0000000e+000
  7.5008770e-009  4.5975095e-009  0.0000000e+000
  7.4999252e-009  4.9982117e-009  0.0000000e+000
  7.4998927e-009  5.4003298e-009  0.0000000e+000
  7.4999070e-009  5.7992866e-009  0.0000000e+000
  7.5006589e-009  6.2018401e-009  0.0000000e+000
  7.5005653e-009  6.6010836e-009  0.0000000e+000
  7.5002873e-009  6.9994914e-009  0.0000000e+000
  7.5003950e-009  7.3992789e-009  0.0000000e+000
  7.5005567e-009  7.7985815e-009  0.0000000e+000
  7.5004219e-009  8.1986507e-009  0.0000000e+000
  7.5036472e-009  8.6051753e-009  0.0000000e+000
  7.5003944e-009  9.0003864e-009  0.0000000e+000
  0.0000000e+000  0.0000000e+000  0.0000000e+000
  0.0000000e+000  0.0000000e+000  0.0000000e+000
  0.0000000e+000  0.0000000e+000  0.0000000e+000
  0.0000000e+000  0.0000000e+000  0.0000000e+000
  0.0000000e+000  0.0000000e+000  0.0000000e+000
  0.0000000e+000  0.0000000e+000  0.0000000e+000
  0.0000000e+000  0.0000000e+000  0.0000000e+000
  0.0000000e+000  0.0000000e+000  0.0000000e+000
  0.0000000e+000  0.0000000e+000  0.0000000e+000
  0.0000000e+000  0.0000000e+000  0.0000000e+000
  0.0000000e+000  0.0000000e+000  0.0000000e+000
  0.0000000e+000  0.0000000e+000  0.0000000e+000
  6.9015837e-009 -9.7984784e-009  0.0000000e+000
  6.9013883e-009 -9.4000612e-009  0.0000000e+000
  6.9014477e-009 -9.0004899e-009  0.0000000e+000
  6.9012673e-009 -8.6011517e-009  0.0000000e+000
  6.9016046e-009 -8.1986791e-009  0.0000000e+000
  6.9016465e-009 -7.7986169e-009  0.0000000e+000
  6.9015599e-009 -7.3993292e-009  0.0000000e+000
  6.9015926e-009 -6.9996185e-009  0.0000000e+000
  6.9017039e-009 -6.6011348e-009  0.0000000e+000
  6.9017998e-009 -6.2018683e-009  0.0000000e+000
  6.9010541e-009 -5.7993241e-009  0.0000000e+000
  6.9010579e-009 -5.4003534e-009  0.0000000e+000
  6.9018365e-009 -4.9982318e-009  0.0000000e+000
  6.9018929e-009 -4.5975009e-009  0.0000000e+000
  6.9020955e-009 -4.1998709e-009  0.0000000e+000
  6.9021512e-009 -3.8001317e-009  0.0000000e+000
  6.9022235e-009 -3.3994154e-009  0.0000000e+000
  6.9023122e-009 -2.9966138e-009  0.0000000e+000
  6.9024163e-009 -2.6019749e-009  0.0000000e+000
  6.9017287e-009 -2.1991624e-009  0.0000000e+000
  6.9017647e-009 -1.7984224e-009  0.0000000e+000
  6.9018021e-009 -1.4037688e-009  0.0000000e+000
  6.9018367e-009 -1.0016861e-009  0.0000000e+000
  6.9018637e-009 -6.0097328e-010  0.0000000e+000
  6.9018786e-009 -1.9901472e-010  0.0000000e+000
  6.9018786e-009  1.9901472e-010  0.0000000e+000
  6.9018637e-009  6.0097328e-010  0.0000000e+000
  6.9018367e-009  1.0016861e-009  0.0000000e+000
  6.9018021e-009  1.4037688e-009  0.0000000e+000
  6.9017647e-009  1.7984224e-009  0.0000000e+000
  6.9017287e-009  2.1991624e-009  0.0000000e+000
  6.9024163e-009  2.6019749e-009  0.0000000e+000
  6.9023122e-009  2.9966138e-009  0.0000000e+000
  6.9022235e-009  3.3994154e-009  0.0000000e+000
  6.9021512e-009  3.8001317e-009  0.0000000e+000
  6.9020955e-009  4.1998709e-009  0.0000000e+000
  6.9018929e-009  4.5975009e-009  0.0000000e+000
  6.9018365e-009  4.9982318e-009  0.0000000e+000
  6.9010579e-009  5.4003534e-009  0.0000000e+000
  6.9010541e-009  5.7993241e-009  0.0000000e+000
  6.9017998e-009  6.2018683e-009  0.0000000e+000
  6.9017039e-009  6.6011348e-009  0.0000000e+000
  6.9015926e-009  6.9996185e-009  0.0000000e+000
  6.9015599e-009  7.3993292e-009  0.0000000e+000
  6.9016465e-009  7.7986169e-009  0.0000000e+000
  6.9016046e-009  8.1986791e-009  0.0000000e+000
  6.9012673e-009  8.6011517e-009  0.0000000e+000
  6.9014477e-009  9.0004899e-009  0.0000000e+000
  6.9013883e-009  9.4000612e-009  0.0000000e+000
  6.9015837e-009  9.7984784e-009  0.0000000e+000
  0.0000000e+000  0.0000000e+000  0.0000000e+000
  0.0000000e+000  0.0000000e+000  0.0000000e+000
  0.0000000e+000  0.0000000e+000  0.0000000e+000
  0.0000000e+000  0.0000000e+000  0.0000000e+000
  0.0000000e+000  0.0000000e+000  0.0000000e+000
  0.0000000e+000  0.0000000e+000  0.0000000e+000
  0.0000000e+000  0.0000000e+000  0.0000000e+000
  0.0000000e+000  0.0000000e+000  0.0000000e+000
  0.0000000e+000  0.0000000e+000  0.0000000e+000
  6.2971055e-009 -1.0197680e-008  0.0000000e+000
  6.2960485e-009 -9.7985941e-009  0.0000000e+000
  6.2963659e-009 -9.4001133e-009  0.0000000e+000
  6.2961347e-009 -9.0004534e-009  0.0000000e+000
  6.2960460e-009 -8.6012370e-009  0.0000000e+000
  6.2962165e-009 -8.1987353e-009  0.0000000e+000
  6.2963263e-009 -7.7986117e-009  0.0000000e+000
  6.2963077e-009 -7.3993666e-009  0.0000000e+000
  6.2963358e-009 -6.9996678e-009  0.0000000e+000
  6.2964030e-009 -6.6011834e-009  0.0000000e+000
  6.2956976e-009 -6.2019072e-009  0.0000000e+000
  6.2957055e-009 -5.7993603e-009  0.0000000e+000
  6.2964714e-009 -5.4002895e-009  0.0000000e+000
  6.2965110e-009 -4.9981875e-009  0.0000000e+000
  6.2965616e-009 -4.5975090e-009  0.0000000e+000
  6.2966223e-009 -4.1998658e-009  0.0000000e+000
  6.2968100e-009 -3.8001265e-009  0.0000000e+000
  6.2968703e-009 -3.3994116e-009  0.0000000e+000
  6.2969437e-009 -2.9966095e-009  0.0000000e+000
  6.2970282e-009 -2.6019755e-009  0.0000000e+000
  6.2963550e-009 -2.1991630e-009  0.0000000e+000
  6.2963804e-009 -1.7984290e-009  0.0000000e+000
  6.2964065e-009 -1.4045380e-009  0.0000000e+000
  6.2964302e-009 -1.0017450e-009  0.0000000e+000
  6.2964484e-009 -6.0105424e-010  0.0000000e+000
  6.2964582e-009 -1.9901385e-010  0.0000000e+000
  6.2964582e-009  1.9901385e-010  0.0000000e+000
  6.2964484e-009  6.0105424e-010  0.0000000e+000
  6.2964302e-009  1.0017450e-009  0.0000000e+000
  6.2964065e-009  1.4045380e-009  0.0000000e+000
  6.2963804e-009  1.7984290e-009  0.0000000e+000
  6.2963550e-009  2.1991630e-009  0.0000000e+000
  6.2970282e-009  2.6019755e-009  0.0000000e+000
  6.2969437e-009  2.9966095e-009  0.0000000e+000
  6.2968703e-009  3.3994116e-009  0.0000000e+000
  6.2968100e-009  3.8001265e-009  0.0000000e+000
  6.2966223e-009  4.1998658e-009  0.0000000e+000
  6.2965616e-009  4.5975090e-009  0.0000000e+000
  6.2965110e-009  4.9981875e-009  0.0000000e+000
  6.2964714e-009  5.4002895e-009  0.0000000e+000
  6.2957055e-009  5.7993603e-009  0.0000000e+000
  6.2956976e-009  6.2019072e-009  0.0000000e+000
  6.2964030e-009  6.6011834e-009  0.0000000e+000
  6.2963358e-009  6.9996678e-009  0.0000000e+000
  6.2963077e-009  7.3993666e-009  0.0000000e+000
  6.2963263e-009  7.7986117e-009  0.0000000e+000
  6.2962165e-009  8.1987353e-009  0.0000000e+000
  6.2960460e-009  8.6012370e-009  0.0000000e+000
  6.2961347e-009  9.0004534e-009  0.0000000e+000
  6.2963659e-009  9.4001133e-009  0.0000000e+000