# OOMMF: rectangular mesh v1.0
# Segment count: 1
# Begin: Segment
# Begin: Header
# Title: Oxs_TimeDriver::Magnetization
# Desc: Oxs vector field output
# Desc:  MIF source file: E:/cyyou_Data/OOMMF_STT_RUN/Test/Stable_P/SyF3_P.mif
# Desc:  Iteration: 96983, State id: 722373
# Desc:  Stage: 0, Stage iteration: 96983
# Desc:  Stage simulation time: 6.41802e-009 s
# Desc:  Total simulation time: 6.41802e-009 s
# meshunit: m
# valueunit: A/m
# valuemultiplier: 1.0
# xmin: -3e-008
# ymin: -2e-008
# zmin: 0
# xmax: 3e-008
# ymax: 2e-008
# zmax: 8.000000000000001e-009
# ValueRangeMaxMag: 1300000.000000001
# ValueRangeMinMag: 1298700
# meshtype: rectangular
# xbase: -2.95e-008
# ybase: -1.95e-008
# zbase: 5e-010
# xstepsize: 1e-009
# ystepsize: 1e-009
# zstepsize: 1e-009
# xnodes: 60
# ynodes: 40
# znodes: 8
# End: Header
# Begin: Data Text
0.000000e+000 0.000000e+000 0.000000e+000
0.000000e+000 0.000000e+000 0.000000e+000
0.000000e+000 0.000000e+000 0.000000e+000
0.000000e+000 0.000000e+000 0.000000e+000
0.000000e+000 0.000000e+000 0.000000e+000
0.000000e+000 0.000000e+000 0.000000e+000
0.000000e+000 0.000000e+000 0.000000e+000
0.000000e+000 0.000000e+000 0.000000e+000
0.000000e+000 0.000000e+000 0.000000e+000
0.000000e+000 0.000000e+000 0.000000e+000
0.000000e+000 0.000000e+000 0.000000e+000
0.000000e+000 0.000000e+000 0.000000e+000
0.000000e+000 0.000000e+000 0.000000e+000
0.000000e+000 0.000000e+000 0.000000e+000
0.000000e+000 0.000000e+000 0.000000e+000
0.000000e+000 0.000000e+000 0.000000e+000
0.000000e+000 0.000000e+000 0.000000e+000
0.000000e+000 0.000000e+000 0.000000e+000
0.000000e+000 0.000000e+000 0.000000e+000
0.000000e+000 0.000000e+000 0.000000e+000
0.000000e+000 0.000000e+000 0.000000e+000
0.000000e+000 0.000000e+000 0.000000e+000
0.000000e+000 0.000000e+000 0.000000e+000
1.299709e+006 -2.616387e+004 -8.479415e+003
1.299777e+006 -2.270588e+004 -7.985377e+003
1.299853e+006 -1.841059e+004 -6.655337e+003
1.299914e+006 -1.407023e+004 -5.081274e+003
1.299958e+006 -9.883307e+003 -3.529236e+003
1.299985e+006 -5.857471e+003 -2.067299e+003
1.299998e+006 -1.940010e+003 -6.799273e+002
1.299998e+006 1.940010e+003 6.799273e+002
1.299985e+006 5.857471e+003 2.067299e+003
1.299958e+006 9.883307e+003 3.529236e+003
1.299914e+006 1.407023e+004 5.081274e+003
1.299853e+006 1.841059e+004 6.655337e+003
1.299777e+006 2.270588e+004 7.985377e+003
1.299709e+006 2.616387e+004 8.479415e+003
0.000000e+000 0.000000e+000 0.000000e+000
0.000000e+000 0.000000e+000 0.000000e+000
0.000000e+000 0.000000e+000 0.000000e+000
0.000000e+000 0.000000e+000 0.000000e+000
0.000000e+000 0.000000e+000 0.000000e+000
0.000000e+000 0.000000e+000 0.000000e+000
0.000000e+000 0.000000e+000 0.000000e+000
0.000000e+000 0.000000e+000 0.000000e+000
0.000000e+000 0.000000e+000 0.000000e+000
0.000000e+000 0.000000e+000 0.000000e+000
0.000000e+000 0.000000e+000 0.000000e+000
0.000000e+000 0.000000e+000 0.000000e+000
0.000000e+000 0.000000e+000 0.000000e+000
0.000000e+000 0.000000e+000 0.000000e+000
0.000000e+000 0.000000e+000 0.000000e+000
0.000000e+000 0.000000e+000 0.000000e+000
0.000000e+000 0.000000e+000 0.000000e+000
0.000000e+000 0.000000e+000 0.000000e+000
0.000000e+000 0.000000e+000 0.000000e+000
0.000000e+000 0.000000e+000 0.000000e+000
0.000000e+000 0.000000e+000 0.000000e+000
0.000000e+000 0.000000e+000 0.000000e+000
0.000000e+000 0.000000e+000 0.000000e+000
0.000000e+000 0.000000e+000 0.000000e+000
0.000000e+000 0.000000e+000 0.000000e+000
0.000000e+000 0.000000e+000 0.000000e+000
0.000000e+000 0.000000e+000 0.000000e+000
0.000000e+000 0.000000e+000 0.000000e+000
0.000000e+000 0.000000e+000 0.000000e+000
0.000000e+000 0.000000e+000 0.000000e+000
0.000000e+000 0.000000e+000 0.000000e+000
0.000000e+000 0.000000e+000 0.000000e+000
0.000000e+000 0.000000e+000 0.000000e+000
0.000000e+000 0.000000e+000 0.000000e+000
0.000000e+000 0.000000e+000 0.000000e+000
0.000000e+000 0.000000e+000 0.000000e+000
0.000000e+000 0.000000e+000 0.000000e+000
0.000000e+000 0.000000e+000 0.000000e+000
0.000000e+000 0.000000e+000 0.000000e+000
0.000000e+000 0.000000e+000 0.000000e+000
0.000000e+000 0.000000e+000 0.000000e+000
0.000000e+000 0.000000e+000 0.000000e+000
1.299211e+006 -4.291274e+004 -1.446233e+004
1.299300e+006 -4.026217e+004 -1.406089e+004
1.299396e+006 -3.747853e+004 -1.281671e+004
1.299482e+006 -3.496654e+004 -1.111113e+004
1.299628e+006 -2.966540e+004 -9.341115e+003
1.299756e+006 -2.389046e+004 -8.049598e+003
1.299848e+006 -1.878077e+004 -6.542809e+003
1.299913e+006 -1.417189e+004 -4.965062e+003
1.299958e+006 -9.901698e+003 -3.445967e+003
1.299985e+006 -5.855146e+003 -2.019550e+003
1.299998e+006 -1.937616e+003 -6.645241e+002
1.299998e+006 1.937616e+003 6.645241e+002
1.299985e+006 5.855146e+003 2.019550e+003
1.299958e+006 9.901698e+003 3.445967e+003
1.299913e+006 1.417189e+004 4.965062e+003
1.299848e+006 1.878077e+004 6.542809e+003
1.299756e+006 2.389046e+004 8.049598e+003
1.299628e+006 2.966540e+004 9.341115e+003
1.299482e+006 3.496654e+004 1.111113e+004
1.299396e+006 3.747853e+004 1.281671e+004
1.299300e+006 4.026217e+004 1.406089e+004
1.299211e+006 4.291274e+004 1.446233e+004
0.000000e+000 0.000000e+000 0.000000e+000
0.000000e+000 0.000000e+000 0.000000e+000
0.000000e+000 0.000000e+000 0.000000e+000
0.000000e+000 0.000000e+000 0.000000e+000
0.000000e+000 0.000000e+000 0.000000e+000
0.000000e+000 0.000000e+000 0.000000e+000
0.000000e+000 0.000000e+000 0.000000e+000
0.000000e+000 0.000000e+000 0.000000e+000
0.000000e+000 0.000000e+000 0.000000e+000
0.000000e+000 0.000000e+000 0.000000e+000
0.000000e+000 0.000000e+000 0.000000e+000
0.000000e+000 0.000000e+000 0.000000e+000
0.000000e+000 0.000000e+000 0.000000e+000
0.000000e+000 0.000000e+000 0.000000e+000
0.000000e+000 0.000000e+000 0.000000e+000
0.000000e+000 0.000000e+000 0.000000e+000
0.000000e+000 0.000000e+000 0.000000e+000
0.000000e+000 0.000000e+000 0.000000e+000
0.000000e+000 0.000000e+000 0.000000e+000
0.000000e+000 0.000000e+000 0.000000e+000
0.000000e+000 0.000000e+000 0.000000e+000
0.000000e+000 0.000000e+000 0.000000e+000
0.000000e+000 0.000000e+000 0.000000e+000
0.000000e+000 0.000000e+000 0.000000e+000
0.000000e+000 0.000000e+000 0.000000e+000
0.000000e+000 0.000000e+000 0.000000e+000
0.000000e+000 0.000000e+000 0.000000e+000
0.000000e+000 0.000000e+000 0.000000e+000
0.000000e+000 0.000000e+000 0.000000e+000
0.000000e+000 0.000000e+000 0.000000e+000
0.000000e+000 0.000000e+000 0.000000e+000
0.000000e+000 0.000000e+000 0.000000e+000
0.000000e+000 0.000000e+000 0.000000e+000
0.000000e+000 0.000000e+000 0.000000e+000
1.298555e+006 -5.747221e+004 -2.128387e+004
1.298686e+006 -5.471342e+004 -2.050999e+004
1.298823e+006 -5.199863e+004 -1.887470e+004
1.298931e+006 -4.991423e+004 -1.692400e+004
1.299112e+006 -4.560792e+004 -1.513481e+004
1.299285e+006 -4.079506e+004 -1.391323e+004
1.299417e+006 -3.686574e+004 -1.250344e+004
1.299528e+006 -3.328047e+004 -1.094067e+004
1.299650e+006 -2.869749e+004 -9.345594e+003
1.299764e+006 -2.352409e+004 -7.825238e+003
1.299852e+006 -1.856586e+004 -6.277215e+003
1.299916e+006 -1.400489e+004 -4.751569e+003
1.299959e+006 -9.776669e+003 -3.302031e+003
1.299986e+006 -5.777986e+003 -1.938805e+003
1.299998e+006 -1.911617e+003 -6.386927e+002
1.299998e+006 1.911617e+003 6.386927e+002
1.299986e+006 5.777986e+003 1.938805e+003
1.299959e+006 9.776669e+003 3.302031e+003
1.299916e+006 1.400489e+004 4.751569e+003
1.299852e+006 1.856586e+004 6.277215e+003
1.299764e+006 2.352409e+004 7.825238e+003
1.299650e+006 2.869749e+004 9.345594e+003
1.299528e+006 3.328047e+004 1.094067e+004
1.299417e+006 3.686574e+004 1.250344e+004
1.299285e+006 4.079506e+004 1.391323e+004
1.299112e+006 4.560792e+004 1.513481e+004
1.298931e+006 4.991423e+004 1.692400e+004
1.298823e+006 5.199863e+004 1.887470e+004
1.298686e+006 5.471342e+004 2.050999e+004
1.298555e+006 5.747221e+004 2.128387e+004
0.000000e+000 0.000000e+000 0.000000e+000
0.000000e+000 0.000000e+000 0.000000e+000
0.000000e+000 0.000000e+000 0.000000e+000
0.000000e+000 0.000000e+000 0.000000e+000
0.000000e+000 0.000000e+000 0.000000e+000
0.000000e+000 0.000000e+000 0.000000e+000
0.000000e+000 0.000000e+000 0.000000e+000
0.000000e+000 0.000000e+000 0.000000e+000
0.000000e+000 0.000000e+000 0.000000e+000
0.000000e+000 0.000000e+000 0.000000e+000
0.000000e+000 0.000000e+000 0.000000e+000
0.000000e+000 0.000000e+000 0.000000e+000
0.000000e+000 0.000000e+000 0.000000e+000
0.000000e+000 0.000000e+000 0.000000e+000
0.000000e+000 0.000000e+000 0.000000e+000
0.000000e+000 0.000000e+000 0.000000e+000
0.000000e+000 0.000000e+000 0.000000e+000
0.000000e+000 0.000000e+000 0.000000e+000
0.000000e+000 0.000000e+000 0.000000e+000
0.000000e+000 0.000000e+000 0.000000e+000
0.000000e+000 0.000000e+000 0.000000e+000
0.000000e+000 0.000000e+000 0.000000e+000
0.000000e+000 0.000000e+000 0.000000e+000
0.000000e+000 0.000000e+000 0.000000e+000
0.000000e+000 0.000000e+000 0.000000e+000
0.000000e+000 0.000000e+000 0.000000e+000
0.000000e+000 0.000000e+000 0.000000e+000
0.000000e+000 0.000000e+000 0.000000e+000
1.297993e+006 -6.753959e+004 -2.553255e+004
1.298124e+006 -6.546061e+004 -2.426672e+004
1.298401e+006 -6.054979e+004 -2.213035e+004
1.298661e+006 -5.534963e+004 -2.038423e+004
1.298855e+006 -5.130796e+004 -1.850432e+004
1.299009e+006 -4.794377e+004 -1.662950e+004
1.299172e+006 -4.392147e+004 -1.490331e+004
1.299333e+006 -3.944909e+004 -1.337229e+004
1.299468e+006 -3.525481e+004 -1.186512e+004
1.299583e+006 -3.124394e+004 -1.035208e+004
1.299691e+006 -2.692683e+004 -8.841832e+003
1.299787e+006 -2.233987e+004 -7.351837e+003
1.299865e+006 -1.781283e+004 -5.881014e+003
1.299922e+006 -1.351779e+004 -4.458501e+003
1.299962e+006 -9.466628e+003 -3.108210e+003
1.299987e+006 -5.603720e+003 -1.830297e+003
1.299999e+006 -1.855216e+003 -6.039401e+002
1.299999e+006 1.855216e+003 6.039401e+002
1.299987e+006 5.603720e+003 1.830297e+003
1.299962e+006 9.466628e+003 3.108210e+003
1.299922e+006 1.351779e+004 4.458501e+003
1.299865e+006 1.781283e+004 5.881014e+003
1.299787e+006 2.233987e+004 7.351837e+003
1.299691e+006 2.692683e+004 8.841832e+003
1.299583e+006 3.124394e+004 1.035208e+004
1.299468e+006 3.525481e+004 1.186512e+004
1.299333e+006 3.944909e+004 1.337229e+004
1.299172e+006 4.392147e+004 1.490331e+004
1.299009e+006 4.794377e+004 1.662950e+004
1.298855e+006 5.130796e+004 1.850432e+004
1.298661e+006 5.534963e+004 2.038423e+004
1.298401e+006 6.054979e+004 2.213035e+004
1.298124e+006 6.546061e+004 2.426672e+004
1.297993e+006 6.753959e+004 2.553255e+004
0.000000e+000 0.000000e+000 0.000000e+000
0.000000e+000 0.000000e+000 0.000000e+000
0.000000e+000 0.000000e+000 0.000000e+000
0.000000e+000 0.000000e+000 0.000000e+000
0.000000e+000 0.000000e+000 0.000000e+000
0.000000e+000 0.000000e+000 0.000000e+000
0.000000e+000 0.000000e+000 0.000000e+000
0.000000e+000 0.000000e+000 0.000000e+000
0.000000e+000 0.000000e+000 0.000000e+000
0.000000e+000 0.000000e+000 0.000000e+000
0.000000e+000 0.000000e+000 0.000000e+000
0.000000e+000 0.000000e+000 0.000000e+000
0.000000e+000 0.000000e+000 0.000000e+000
0.000000e+000 0.000000e+000 0.000000e+000
0.000000e+000 0.000000e+000 0.000000e+000
0.000000e+000 0.000000e+000 0.000000e+000
0.000000e+000 0.000000e+000 0.000000e+000
0.000000e+000 0.000000e+000 0.000000e+000
0.000000e+000 0.000000e+000 0.000000e+000
0.000000e+000 0.000000e+000 0.000000e+000
0.000000e+000 0.000000e+000 0.000000e+000
0.000000e+000 0.000000e+000 0.000000e+000
0.000000e+000 0.000000e+000 0.000000e+000
0.000000e+000 0.000000e+000 0.000000e+000
1.297528e+006 -7.417003e+004 -3.031707e+004
1.297642e+006 -7.275170e+004 -2.884295e+004
1.297894e+006 -6.908549e+004 -2.641753e+004
1.298182e+006 -6.430118e+004 -2.428096e+004
1.298469e+006 -5.912724e+004 -2.197781e+004
1.298729e+006 -5.394548e+004 -1.980628e+004
1.298939e+006 -4.941787e+004 -1.775561e+004
1.299110e+006 -4.540093e+004 -1.585973e+004
1.299266e+006 -4.134450e+004 -1.412940e+004
1.299408e+006 -3.716742e+004 -1.254053e+004
1.299532e+006 -3.308179e+004 -1.103458e+004
1.299639e+006 -2.908492e+004 -9.580502e+003
1.299734e+006 -2.501885e+004 -8.161942e+003
1.299815e+006 -2.087312e+004 -6.774842e+003
1.299881e+006 -1.676996e+004 -5.424174e+003
1.299930e+006 -1.280630e+004 -4.124695e+003
1.299966e+006 -9.006609e+003 -2.886239e+003
1.299988e+006 -5.344909e+003 -1.704913e+003
1.299999e+006 -1.771593e+003 -5.635479e+002
1.299999e+006 1.771593e+003 5.635479e+002
1.299988e+006 5.344909e+003 1.704913e+003
1.299966e+006 9.006609e+003 2.886239e+003
1.299930e+006 1.280630e+004 4.124695e+003
1.299881e+006 1.676996e+004 5.424174e+003
1.299815e+006 2.087312e+004 6.774842e+003
1.299734e+006 2.501885e+004 8.161942e+003
1.299639e+006 2.908492e+004 9.580502e+003
1.299532e+006 3.308179e+004 1.103458e+004
1.299408e+006 3.716742e+004 1.254053e+004
1.299266e+006 4.134450e+004 1.412940e+004
1.299110e+006 4.540093e+004 1.585973e+004
1.298939e+006 4.941787e+004 1.775561e+004
1.298729e+006 5.394548e+004 1.980628e+004
1.298469e+006 5.912724e+004 2.197781e+004
1.298182e+006 6.430118e+004 2.428096e+004
1.297894e+006 6.908549e+004 2.641753e+004
1.297642e+006 7.275170e+004 2.884295e+004
1.297528e+006 7.417003e+004 3.031707e+004
0.000000e+000 0.000000e+000 0.000000e+000
0.000000e+000 0.000000e+000 0.000000e+000
0.000000e+000 0.000000e+000 0.000000e+000
0.000000e+000 0.000000e+000 0.000000e+000
0.000000e+000 0.000000e+000 0.000000e+000
0.000000e+000 0.000000e+000 0.000000e+000
0.000000e+000 0.000000e+000 0.000000e+000
0.000000e+000 0.000000e+000 0.000000e+000
0.000000e+000 0.000000e+000 0.000000e+000
0.000000e+000 0.000000e+000 0.000000e+000
0.000000e+000 0.000000e+000 0.000000e+000
0.000000e+000 0.000000e+000 0.000000e+000
0.000000e+000 0.000000e+000 0.000000e+000
0.000000e+000 0.000000e+000 0.000000e+000
0.000000e+000 0.000000e+000 0.000000e+000
0.000000e+000 0.000000e+000 0.000000e+000
0.000000e+000 0.000000e+000 0.000000e+000
0.000000e+000 0.000000e+000 0.000000e+000
0.000000e+000 0.000000e+000 0.000000e+000
0.000000e+000 0.000000e+000 0.000000e+000
1.297119e+006 -7.882280e+004 -3.563701e+004
1.297215e+006 -7.795332e+004 -3.401981e+004
1.297453e+006 -7.508314e+004 -3.126968e+004
1.297744e+006 -7.093225e+004 -2.880780e+004
1.298041e+006 -6.637349e+004 -2.616135e+004
1.298338e+006 -6.133595e+004 -2.360345e+004
1.298612e+006 -5.620733e+004 -2.113325e+004
1.298853e+006 -5.125063e+004 -1.883906e+004
1.299053e+006 -4.671167e+004 -1.674831e+004
1.299219e+006 -4.254751e+004 -1.486335e+004
1.299362e+006 -3.853624e+004 -1.316121e+004
1.299488e+006 -3.458018e+004 -1.160487e+004
1.299598e+006 -3.070489e+004 -1.015474e+004
1.299692e+006 -2.690064e+004 -8.781322e+003
1.299773e+006 -2.311341e+004 -7.464097e+003
1.299841e+006 -1.933353e+004 -6.192543e+003
1.299897e+006 -1.560477e+004 -4.965453e+003
1.299939e+006 -1.197210e+004 -3.786975e+003
1.299970e+006 -8.451002e+003 -2.658765e+003
1.299989e+006 -5.027400e+003 -1.574895e+003
1.299999e+006 -1.668336e+003 -5.213760e+002
1.299999e+006 1.668336e+003 5.213760e+002
1.299989e+006 5.027400e+003 1.574895e+003
1.299970e+006 8.451002e+003 2.658765e+003
1.299939e+006 1.197210e+004 3.786975e+003
1.299897e+006 1.560477e+004 4.965453e+003
1.299841e+006 1.933353e+004 6.192543e+003
1.299773e+006 2.311341e+004 7.464097e+003
1.299692e+006 2.690064e+004 8.781322e+003
1.299598e+006 3.070489e+004 1.015474e+004
1.299488e+006 3.458018e+004 1.160487e+004
1.299362e+006 3.853624e+004 1.316121e+004
1.299219e+006 4.254751e+004 1.486335e+004
1.299053e+006 4.671167e+004 1.674831e+004
1.298853e+006 5.125063e+004 1.883906e+004
1.298612e+006 5.620733e+004 2.113325e+004
1.298338e+006 6.133595e+004 2.360345e+004
1.298041e+006 6.637349e+004 2.616135e+004
1.297744e+006 7.093225e+004 2.880780e+004
1.297453e+006 7.508314e+004 3.126968e+004
1.297215e+006 7.795332e+004 3.401981e+004
1.297119e+006 7.882280e+004 3.563701e+004
0.000000e+000 0.000000e+000 0.000000e+000
0.000000e+000 0.000000e+000 0.000000e+000
0.000000e+000 0.000000e+000 0.000000e+000
0.000000e+000 0.000000e+000 0.000000e+000
0.000000e+000 0.000000e+000 0.000000e+000
0.000000e+000 0.000000e+000 0.000000e+000
0.000000e+000 0.000000e+000 0.000000e+000
0.000000e+000 0.000000e+000 0.000000e+000
0.000000e+000 0.000000e+000 0.000000e+000
0.000000e+000 0.000000e+000 0.000000e+000
0.000000e+000 0.000000e+000 0.000000e+000
0.000000e+000 0.000000e+000 0.000000e+000
0.000000e+000 0.000000e+000 0.000000e+000
0.000000e+000 0.000000e+000 0.000000e+000
0.000000e+000 0.000000e+000 0.000000e+000
0.000000e+000 0.000000e+000 0.000000e+000
0.000000e+000 0.000000e+000 0.000000e+000
1.296796e+006 -8.292569e+004 -3.799165e+004
1.297019e+006 -8.013166e+004 -3.635187e+004
1.297323e+006 -7.616947e+004 -3.394340e+004
1.297638e+006 -7.194475e+004 -3.098168e+004
1.297957e+006 -6.724727e+004 -2.803072e+004
1.298258e+006 -6.239070e+004 -2.515929e+004
1.298536e+006 -5.744845e+004 -2.245773e+004
1.298783e+006 -5.257603e+004 -1.995553e+004
1.298996e+006 -4.791666e+004 -1.767982e+004
1.299176e+006 -4.356952e+004 -1.563626e+004
1.299326e+006 -3.951641e+004 -1.381068e+004
1.299454e+006 -3.565983e+004 -1.217282e+004
1.299564e+006 -3.192847e+004 -1.068584e+004
1.299659e+006 -2.829766e+004 -9.314890e+003
1.299740e+006 -2.474679e+004 -8.031855e+003
1.299808e+006 -2.124960e+004 -6.815863e+003
1.299866e+006 -1.779730e+004 -5.653762e+003
1.299912e+006 -1.440307e+004 -4.539285e+003
1.299948e+006 -1.108394e+004 -3.469931e+003
1.299974e+006 -7.845080e+003 -2.442501e+003
1.299991e+006 -4.675862e+003 -1.449938e+003
1.299999e+006 -1.553196e+003 -4.805953e+002
1.299999e+006 1.553196e+003 4.805953e+002
1.299991e+006 4.675862e+003 1.449938e+003
1.299974e+006 7.845080e+003 2.442501e+003
1.299948e+006 1.108394e+004 3.469931e+003
1.299912e+006 1.440307e+004 4.539285e+003
1.299866e+006 1.779730e+004 5.653762e+003
1.299808e+006 2.124960e+004 6.815863e+003
1.299740e+006 2.474679e+004 8.031855e+003
1.299659e+006 2.829766e+004 9.314890e+003
1.299564e+006 3.192847e+004 1.068584e+004
1.299454e+006 3.565983e+004 1.217282e+004
1.299326e+006 3.951641e+004 1.381068e+004
1.299176e+006 4.356952e+004 1.563626e+004
1.298996e+006 4.791666e+004 1.767982e+004
1.298783e+006 5.257603e+004 1.995553e+004
1.298536e+006 5.744845e+004 2.245773e+004
1.298258e+006 6.239070e+004 2.515929e+004
1.297957e+006 6.724727e+004 2.803072e+004
1.297638e+006 7.194475e+004 3.098168e+004
1.297323e+006 7.616947e+004 3.394340e+004
1.297019e+006 8.013166e+004 3.635187e+004
1.296796e+006 8.292569e+004 3.799165e+004
0.000000e+000 0.000000e+000 0.000000e+000
0.000000e+000 0.000000e+000 0.000000e+000
0.000000e+000 0.000000e+000 0.000000e+000
0.000000e+000 0.000000e+000 0.000000e+000
0.000000e+000 0.000000e+000 0.000000e+000
0.000000e+000 0.000000e+000 0.000000e+000
0.000000e+000 0.000000e+000 0.000000e+000
0.000000e+000 0.000000e+000 0.000000e+000
0.000000e+000 0.000000e+000 0.000000e+000
0.000000e+000 0.000000e+000 0.000000e+000
0.000000e+000 0.000000e+000 0.000000e+000
0.000000e+000 0.000000e+000 0.000000e+000
0.000000e+000 0.000000e+000 0.000000e+000
0.000000e+000 0.000000e+000 0.000000e+000
0.000000e+000 0.000000e+000 0.000000e+000
1.296667e+006 -8.351487e+004 -4.097568e+004
1.296840e+006 -8.177814e+004 -3.896563e+004
1.297191e+006 -7.731037e+004 -3.632680e+004
1.297558e+006 -7.239362e+004 -3.320284e+004
1.297900e+006 -6.752485e+004 -2.992471e+004
1.298213e+006 -6.266723e+004 -2.676483e+004
1.298493e+006 -5.786813e+004 -2.381652e+004
1.298741e+006 -5.316487e+004 -2.111730e+004
1.298956e+006 -4.861925e+004 -1.867410e+004
1.299141e+006 -4.429435e+004 -1.648368e+004
1.299296e+006 -4.022757e+004 -1.453251e+004
1.299427e+006 -3.640544e+004 -1.279674e+004
1.299538e+006 -3.277762e+004 -1.124468e+004
1.299633e+006 -2.929539e+004 -9.842134e+003
1.299713e+006 -2.592681e+004 -8.557493e+003
1.299782e+006 -2.264817e+004 -7.364465e+003
1.299840e+006 -1.943996e+004 -6.242772e+003
1.299888e+006 -1.629218e+004 -5.178147e+003
1.299926e+006 -1.320490e+004 -4.161412e+003
1.299956e+006 -1.018111e+004 -3.186361e+003
1.299978e+006 -7.218949e+003 -2.247105e+003
1.299992e+006 -4.308451e+003 -1.336061e+003
1.299999e+006 -1.432168e+003 -4.432482e+002
1.299999e+006 1.432168e+003 4.432482e+002
1.299992e+006 4.308451e+003 1.336061e+003
1.299978e+006 7.218949e+003 2.247105e+003
1.299956e+006 1.018111e+004 3.186361e+003
1.299926e+006 1.320490e+004 4.161412e+003
1.299888e+006 1.629218e+004 5.178147e+003
1.299840e+006 1.943996e+004 6.242772e+003
1.299782e+006 2.264817e+004 7.364465e+003
1.299713e+006 2.592681e+004 8.557493e+003
1.299633e+006 2.929539e+004 9.842134e+003
1.299538e+006 3.277762e+004 1.124468e+004
1.299427e+006 3.640544e+004 1.279674e+004
1.299296e+006 4.022757e+004 1.453251e+004
1.299141e+006 4.429435e+004 1.648368e+004
1.298956e+006 4.861925e+004 1.867410e+004
1.298741e+006 5.316487e+004 2.111730e+004
1.298493e+006 5.786813e+004 2.381652e+004
1.298213e+006 6.266723e+004 2.676483e+004
1.297900e+006 6.752485e+004 2.992471e+004
1.297558e+006 7.239362e+004 3.320284e+004
1.297191e+006 7.731037e+004 3.632680e+004
1.296840e+006 8.177814e+004 3.896563e+004
1.296667e+006 8.351487e+004 4.097568e+004
0.000000e+000 0.000000e+000 0.000000e+000
0.000000e+000 0.000000e+000 0.000000e+000
0.000000e+000 0.000000e+000 0.000000e+000
0.000000e+000 0.000000e+000 0.000000e+000
0.000000e+000 0.000000e+000 0.000000e+000
0.000000e+000 0.000000e+000 0.000000e+000
0.000000e+000 0.000000e+000 0.000000e+000
0.000000e+000 0.000000e+000 0.000000e+000
0.000000e+000 0.000000e+000 0.000000e+000
0.000000e+000 0.000000e+000 0.000000e+000
0.000000e+000 0.000000e+000 0.000000e+000
0.000000e+000 0.000000e+000 0.000000e+000
1.296772e+006 -7.770428e+004 -4.842140e+004
1.296758e+006 -7.929627e+004 -4.616828e+004
1.296838e+006 -8.007580e+004 -4.241202e+004
1.297136e+006 -7.690725e+004 -3.904745e+004
1.297503e+006 -7.227265e+004 -3.553185e+004
1.297864e+006 -6.729798e+004 -3.195718e+004
1.298188e+006 -6.240835e+004 -2.850291e+004
1.298474e+006 -5.767566e+004 -2.529453e+004
1.298722e+006 -5.311253e+004 -2.237780e+004
1.298936e+006 -4.872694e+004 -1.975752e+004
1.299120e+006 -4.453732e+004 -1.741973e+004
1.299276e+006 -4.056424e+004 -1.534340e+004
1.299408e+006 -3.681616e+004 -1.350313e+004
1.299520e+006 -3.327908e+004 -1.186970e+004
1.299614e+006 -2.992144e+004 -1.041141e+004
1.299694e+006 -2.670887e+004 -9.096723e+003
1.299762e+006 -2.361294e+004 -7.896990e+003
1.299819e+006 -2.061122e+004 -6.788014e+003
1.299867e+006 -1.768638e+004 -5.750557e+003
1.299907e+006 -1.482714e+004 -4.770146e+003
1.299939e+006 -1.202760e+004 -3.836246e+003
1.299964e+006 -9.283882e+003 -2.940821e+003
1.299982e+006 -6.590192e+003 -2.076666e+003
1.299993e+006 -3.936663e+003 -1.236098e+003
1.299999e+006 -1.309208e+003 -4.103442e+002
1.299999e+006 1.309208e+003 4.103442e+002
1.299993e+006 3.936663e+003 1.236098e+003
1.299982e+006 6.590192e+003 2.076666e+003
1.299964e+006 9.283882e+003 2.940821e+003
1.299939e+006 1.202760e+004 3.836246e+003
1.299907e+006 1.482714e+004 4.770146e+003
1.299867e+006 1.768638e+004 5.750557e+003
1.299819e+006 2.061122e+004 6.788014e+003
1.299762e+006 2.361294e+004 7.896990e+003
1.299694e+006 2.670887e+004 9.096723e+003
1.299614e+006 2.992144e+004 1.041141e+004
1.299520e+006 3.327908e+004 1.186970e+004
1.299408e+006 3.681616e+004 1.350313e+004
1.299276e+006 4.056424e+004 1.534340e+004
1.299120e+006 4.453732e+004 1.741973e+004
1.298936e+006 4.872694e+004 1.975752e+004
1.298722e+006 5.311253e+004 2.237780e+004
1.298474e+006 5.767566e+004 2.529453e+004
1.298188e+006 6.240835e+004 2.850291e+004
1.297864e+006 6.729798e+004 3.195718e+004
1.297503e+006 7.227265e+004 3.553185e+004
1.297136e+006 7.690725e+004 3.904745e+004
1.296838e+006 8.007580e+004 4.241202e+004
1.296758e+006 7.929627e+004 4.616828e+004
1.296772e+006 7.770428e+004 4.842140e+004
0.000000e+000 0.000000e+000 0.000000e+000
0.000000e+000 0.000000e+000 0.000000e+000
0.000000e+000 0.000000e+000 0.000000e+000
0.000000e+000 0.000000e+000 0.000000e+000
0.000000e+000 0.000000e+000 0.000000e+000
0.000000e+000 0.000000e+000 0.000000e+000
0.000000e+000 0.000000e+000 0.000000e+000
0.000000e+000 0.000000e+000 0.000000e+000
0.000000e+000 0.000000e+000 0.000000e+000
1.296764e+006 -7.602579e+004 -5.120527e+004
1.296780e+006 -7.696562e+004 -4.937160e+004
1.296958e+006 -7.589624e+004 -4.625010e+004
1.297199e+006 -7.409266e+004 -4.225209e+004
1.297519e+006 -7.059982e+004 -3.819593e+004
1.297863e+006 -6.618879e+004 -3.422728e+004
1.298186e+006 -6.152082e+004 -3.045301e+004
1.298473e+006 -5.692130e+004 -2.696205e+004
1.298722e+006 -5.249686e+004 -2.380170e+004
1.298934e+006 -4.827207e+004 -2.097816e+004
1.299115e+006 -4.424973e+004 -1.847374e+004
1.299269e+006 -4.043117e+004 -1.626027e+004
1.299400e+006 -3.681737e+004 -1.430642e+004
1.299510e+006 -3.340354e+004 -1.258025e+004
1.299603e+006 -3.017478e+004 -1.104990e+004
1.299681e+006 -2.710784e+004 -9.684249e+003
1.299748e+006 -2.417705e+004 -8.454075e+003
1.299804e+006 -2.135893e+004 -7.333319e+003
1.299851e+006 -1.863376e+004 -6.299854e+003
1.299891e+006 -1.598575e+004 -5.335705e+003
1.299923e+006 -1.340315e+004 -4.426763e+003
1.299950e+006 -1.087745e+004 -3.562100e+003
1.299970e+006 -8.401623e+003 -2.732961e+003
1.299985e+006 -5.968008e+003 -1.931658e+003
1.299995e+006 -3.566974e+003 -1.150672e+003
1.299999e+006 -1.186624e+003 -3.821533e+002
1.299999e+006 1.186624e+003 3.821533e+002
1.299995e+006 3.566974e+003 1.150672e+003
1.299985e+006 5.968008e+003 1.931658e+003
1.299970e+006 8.401623e+003 2.732961e+003
1.299950e+006 1.087745e+004 3.562100e+003
1.299923e+006 1.340315e+004 4.426763e+003
1.299891e+006 1.598575e+004 5.335705e+003
1.299851e+006 1.863376e+004 6.299854e+003
1.299804e+006 2.135893e+004 7.333319e+003
1.299748e+006 2.417705e+004 8.454075e+003
1.299681e+006 2.710784e+004 9.684249e+003
1.299603e+006 3.017478e+004 1.104990e+004
1.299510e+006 3.340354e+004 1.258025e+004
1.299400e+006 3.681737e+004 1.430642e+004
1.299269e+006 4.043117e+004 1.626027e+004
1.299115e+006 4.424973e+004 1.847374e+004
1.298934e+006 4.827207e+004 2.097816e+004
1.298722e+006 5.249686e+004 2.380170e+004
1.298473e+006 5.692130e+004 2.696205e+004
1.298186e+006 6.152082e+004 3.045301e+004
1.297863e+006 6.618879e+004 3.422728e+004
1.297519e+006 7.059982e+004 3.819593e+004
1.297199e+006 7.409266e+004 4.225209e+004
1.296958e+006 7.589624e+004 4.625010e+004
1.296780e+006 7.696562e+004 4.937160e+004
1.296764e+006 7.602579e+004 5.120527e+004
0.000000e+000 0.000000e+000 0.000000e+000
0.000000e+000 0.000000e+000 0.000000e+000
0.000000e+000 0.000000e+000 0.000000e+000
0.000000e+000 0.000000e+000 0.000000e+000
0.000000e+000 0.000000e+000 0.000000e+000
0.000000e+000 0.000000e+000 0.000000e+000
0.000000e+000 0.000000e+000 0.000000e+000
0.000000e+000 0.000000e+000 0.000000e+000
1.296743e+006 -7.601504e+004 -5.175048e+004
1.296957e+006 -7.380466e+004 -4.955864e+004
1.297258e+006 -7.092678e+004 -4.571581e+004
1.297578e+006 -6.772596e+004 -4.127801e+004
1.297903e+006 -6.394721e+004 -3.686645e+004
1.298213e+006 -5.977317e+004 -3.270770e+004
1.298494e+006 -5.549070e+004 -2.889049e+004
1.298738e+006 -5.129129e+004 -2.545029e+004
1.298948e+006 -4.726093e+004 -2.238955e+004
1.299125e+006 -4.342660e+004 -1.968791e+004
1.299276e+006 -3.979127e+004 -1.731259e+004
1.299402e+006 -3.635072e+004 -1.522640e+004
1.299510e+006 -3.309814e+004 -1.339225e+004
1.299600e+006 -3.002339e+004 -1.177495e+004
1.299676e+006 -2.711160e+004 -1.034170e+004
1.299740e+006 -2.434396e+004 -9.062314e+003
1.299795e+006 -2.170027e+004 -7.909576e+003
1.299841e+006 -1.916133e+004 -6.859632e+003
1.299879e+006 -1.671024e+004 -5.892249e+003
1.299911e+006 -1.433284e+004 -4.990756e+003
1.299938e+006 -1.201765e+004 -4.141724e+003
1.299959e+006 -9.755358e+003 -3.334382e+003
1.299976e+006 -7.537737e+003 -2.559882e+003
1.299988e+006 -5.356523e+003 -1.810522e+003
1.299996e+006 -3.202575e+003 -1.079099e+003
1.300000e+006 -1.065601e+003 -3.584924e+002
1.300000e+006 1.065601e+003 3.584924e+002
1.299996e+006 3.202575e+003 1.079099e+003
1.299988e+006 5.356523e+003 1.810522e+003
1.299976e+006 7.537737e+003 2.559882e+003
1.299959e+006 9.755358e+003 3.334382e+003
1.299938e+006 1.201765e+004 4.141724e+003
1.299911e+006 1.433284e+004 4.990756e+003
1.299879e+006 1.671024e+004 5.892249e+003
1.299841e+006 1.916133e+004 6.859632e+003
1.299795e+006 2.170027e+004 7.909576e+003
1.299740e+006 2.434396e+004 9.062314e+003
1.299676e+006 2.711160e+004 1.034170e+004
1.299600e+006 3.002339e+004 1.177495e+004
1.299510e+006 3.309814e+004 1.339225e+004
1.299402e+006 3.635072e+004 1.522640e+004
1.299276e+006 3.979127e+004 1.731259e+004
1.299125e+006 4.342660e+004 1.968791e+004
1.298948e+006 4.726093e+004 2.238955e+004
1.298738e+006 5.129129e+004 2.545029e+004
1.298494e+006 5.549070e+004 2.889049e+004
1.298213e+006 5.977317e+004 3.270770e+004
1.297903e+006 6.394721e+004 3.686645e+004
1.297578e+006 6.772596e+004 4.127801e+004
1.297258e+006 7.092678e+004 4.571581e+004
1.296957e+006 7.380466e+004 4.955864e+004
1.296743e+006 7.601504e+004 5.175048e+004
0.000000e+000 0.000000e+000 0.000000e+000
0.000000e+000 0.000000e+000 0.000000e+000
0.000000e+000 0.000000e+000 0.000000e+000
0.000000e+000 0.000000e+000 0.000000e+000
0.000000e+000 0.000000e+000 0.000000e+000
0.000000e+000 0.000000e+000 0.000000e+000
0.000000e+000 0.000000e+000 0.000000e+000
1.296816e+006 -7.164379e+004 -5.600504e+004
1.296911e+006 -7.206137e+004 -5.320067e+004
1.297242e+006 -6.871861e+004 -4.941500e+004
1.297606e+006 -6.491297e+004 -4.478852e+004
1.297947e+006 -6.111144e+004 -3.997561e+004
1.298257e+006 -5.724298e+004 -3.538174e+004
1.298532e+006 -5.331782e+004 -3.117233e+004
1.298771e+006 -4.942602e+004 -2.739603e+004
1.298976e+006 -4.565233e+004 -2.405109e+004
1.299148e+006 -4.204473e+004 -2.111171e+004
1.299294e+006 -3.862073e+004 -1.853990e+004
1.299416e+006 -3.538113e+004 -1.629286e+004
1.299519e+006 -3.231956e+004 -1.432777e+004
1.299606e+006 -2.942657e+004 -1.260445e+004
1.299679e+006 -2.669046e+004 -1.108637e+004
1.299740e+006 -2.409722e+004 -9.740792e+003
1.299792e+006 -2.163102e+004 -8.538677e+003
1.299836e+006 -1.927542e+004 -7.454541e+003
1.299873e+006 -1.701459e+004 -6.466414e+003
1.299903e+006 -1.483421e+004 -5.555711e+003