# ODT 1.0
# Table Start
# Title: mmArchive Data Table, Wed Jun 11 15:42:38 EDT 2014
# Columns: {UHH_ThetaEvolve::Total energy} {UHH_ThetaEvolve::Energy calc count} {UHH_ThetaEvolve::Max dm/dt} UHH_ThetaEvolve::dE/dt {UHH_ThetaEvolve::Delta E} UHH_ThetaEvolve::Temperature Oxs_TimeDriver::Iteration {Oxs_TimeDriver::Stage iteration} Oxs_TimeDriver::Stage Oxs_TimeDriver::mx   Oxs_TimeDriver::my   Oxs_TimeDriver::mz   {Oxs_TimeDriver::Last time step} {Oxs_TimeDriver::Simulation time}
# Units:                  J                                 {}                             deg/ns                     J/s                       J                           K                          {}                            {}                          {}                   {}                   {}                   {}                          s                                 s                
                 0                                  1                                75398.830585813499        0                        0                           60                         0                             0                           0                     1                    0                    0                          0                                0                         
                 0                                  2                                71077.833537837098        0                        0                           60                         1                             1                           0                     0.99653189508451601  0.000116005451070738 -1.84479246755261e-06        2.0000000000000001e-13              2.0000000000000001e-13       
                 0                                  3                                78711.989151014393        0                        0                           60                         2                             2                           0                     0.99307933771777401  0.00060118379840722502 -0.00066781241076135304        2.0000000000000001e-13              4.0000000000000001e-13       
                 0                                  4                                69332.906650499601        0                        0                           60                         3                             3                           0                     0.98971483622440104  0.00034665304602989099  0.000108446860952812        2.0000000000000001e-13              5.9999999999999997e-13       
                 0                                  5                                73868.7194226758          0                        0                           60                         4                             4                           0                     0.98629431905475895  0.00020552061252148001  0.00031321676740720398        2.0000000000000001e-13              8.0000000000000002e-13       
# Table End
