# ODT 1.0
# Table Start
# Title: mmArchive Data Table, Tue May 14 03:38:30 EDT 2019
# Columns: {MF_CurrentFlowEvolver::Total energy} {MF_CurrentFlowEvolver::Energy calc count} {MF_CurrentFlowEvolver::Max dm/dt} MF_CurrentFlowEvolver::dE/dt {MF_CurrentFlowEvolver::Delta E} {MF_CurrentFlowEvolver::Oersted field x} {MF_CurrentFlowEvolver::Oersted field y} {MF_CurrentFlowEvolver::Oersted field z} {MF_CurrentFlowEvolver::total resistance} MF_CurrentFlowEvolver::voltage Oxs_Exchange6Ngbr::Energy {Oxs_Exchange6Ngbr::Max Spin Ang} {Oxs_Exchange6Ngbr::Stage Max Spin Ang} {Oxs_Exchange6Ngbr::Run Max Spin Ang} Oxs_TwoSurfaceExchange:FF:Energy Oxs_TwoSurfaceExchange:AF:Energy Oxs_FixedZeeman:Bias:Energy Oxs_UniaxialAnisotropy::Energy Oxs_Demag::Energy    Oxs_TimeDriver::Iteration {Oxs_TimeDriver::Stage iteration} Oxs_TimeDriver::Stage Oxs_TimeDriver::mx   Oxs_TimeDriver::my   Oxs_TimeDriver::mz   {Oxs_TimeDriver::Last time step} {Oxs_TimeDriver::Simulation time}
# Units:                     J                                       {}                                   deg/ns                           J/s                             J                                   A/m                                      A/m                                      A/m                                       Ohm                                  V                            J                            deg                                  deg                                    deg                                 J                                J                              J                            J                        J                       {}                            {}                          {}                   {}                   {}                   {}                          s                                 s                
                   -1.4154146163614719e-17                      1                                      2728.4438916933022              7.1379284603638896e-05            0                                    0                                        0                                        0                                        254.06504065039371                   0                           0                             0                                    0                                      0                                   6.2976000000000018e-19             -1.1965440000000003e-17          -3.5266560000000013e-18           0                         7.0818983638528474e-19    0                             0                           0                     0.29113924050632911  0                    0                          0                                0                         
                   -1.4154147287831424e-17                      16                                     2727.8304129410644              7.1333431510006454e-05           -1.1242167052328943e-24                  0                                        0                                        0                                        254.06504064238121                   0                           5.8672624640250435e-25           0.013951343197397024                  0.013951343197397024                    0.013951343197397024                 6.2975999996025592e-19             -1.1965439999094562e-17          -3.5266559993374075e-18           9.3030006756055602e-28       7.0818812298374215e-19    1                             1                           0                     0.29113924046309542  6.9467489860254729e-23  8.1350086810035146e-23        3.4818381381865967e-15              3.4818381381865967e-15       
                   -1.4154151776985087e-17                      31                                     2721.8226366045897              7.1129479916932979e-05           -4.4891536647122789e-24                  0                                        0                                        0                                        254.06504044581592                   0                           1.4618638042042822e-23           0.069642813514326107                  0.069642813514326107                    0.069642813514326107                 6.2975999898576368e-19             -1.1965439976936932e-17          -3.5266559834665507e-18           2.3209587107936018e-26       7.0816954258500071e-19    2                             2                           0                     0.29113923942700271  7.0198726595625836e-22 -5.0272525556763286e-22        1.3927352552746387e-14              1.7409190690932983e-14       
                   -1.4154169569975518e-17                      46                                     2642.0798884444566              7.003314871798763e-05           -1.779299042906007e-23                  0                                        0                                        0                                        254.06503613767913                   0                           2.4915388481729951e-22           0.28769785721724833                  0.28769785721724833                    0.28769785721724833                 6.2975997762830262e-19             -1.196543950378996e-17          -3.5266557137121414e-18           4.0120854778489583e-25       7.0791611480491509e-19    3                             3                           0                     0.29113922174242785  5.3819023723313136e-21 -1.0383561642269655e-21        5.5709410210985547e-14              7.3118600901918527e-14       
                   -1.4154227927113779e-17                      60                                     2397.2129806690641              6.7088907879362663e-05           -5.8357138260943991e-23                  0                                        0                                        0                                        254.06489587630091                   0                           2.5712452255013677e-21           0.9371417020928402                   0.9371417020928402                     0.9371417020928402                  6.2975928229994065e-19             -1.1965423389298323e-17          -3.5266522525854736e-18           5.1283640835350288e-24       7.0551205888049239e-19    4                             4                           0                     0.29113897788403614  1.3220760175509532e-20  2.1059617978687751e-21        2.2283764084394219e-13              2.9595624174586071e-13       
                   -1.4154227927113779e-17                      69                                     2397.2129806690641              6.7106222518198804e-05            0                                    0                                        0                                        0                                        254.06489587630091                  -0.33333333333333331         2.5712452255013677e-21           0.9371417020928402                   0.9371417020928402                     0.9371417020928402                  6.2975928229994065e-19             -1.1965423389298323e-17          -3.5266522525854736e-18           5.1283640835350288e-24       7.0551205888049239e-19    5                             0                           1                     0.29113897788403614  1.3220760175509532e-20  2.1059617978687751e-21        0                                2.9595624174586071e-13       
                   -1.4154296278444438e-17                      84                                     2854.5360538595378              6.5131143367433983e-05           -6.8351330658557401e-23                  0                                        0                                        0                                        254.06473673377218                  -0.33333333333333331         2.8312864785504084e-21           0.95460010023312591                  0.95460010023312591                    0.95460010023312591                 6.2975849339006153e-19             -1.1965404874267969e-17          -3.5266467218904047e-18           1.1959512436082126e-23       7.0515357833288784e-19    6                             1                           1                     0.2911384121048522   8.7748408244532287e-21  1.3220760175509532e-20        2.7487179849507826e-13              5.7082804024093897e-13       
                   -1.4154357414260188e-17                      99                                     2325.6052048329511              6.3891749092707313e-05           -6.1135815750055869e-23                  0                                        0                                        0                                        254.06453715148831                  -0.33333333333333331         1.5236227007386166e-21           0.77667273698232797                  0.95460010023312591                    0.95460010023312591                 6.2975750401095996e-19             -1.1965395628600153e-17          -3.5266401312257835e-18           1.9607593383798393e-23       7.0637761126066836e-19    7                             2                           1                     0.29113751301896645  1.3571753808487661e-20  3.1589426968031622e-21        2.6521986830073004e-13              8.3604790854166901e-13       
                   -1.415441052974174e-17                      120                                    2548.5192266387721              6.1780694326905508e-05           -5.31154815507681e-23                  0                                        0                                        0                                        254.06434772930558                  -0.33333333333333331         2.7067136234472781e-21           0.93321606716882                     0.95460010023312591                    0.95460010023312591                 6.2975656507258647e-19             -1.1965370281454227e-17          -3.5266315241853208e-18           3.0284919701843076e-23       7.0509771228207302e-19    8                             3                           1                     0.29113656642159852  4.621416167545367e-20 -2.7143507616975321e-20        2.1342539547569742e-13              1.0494733040173665e-12       
                   -1.4154461302780289e-17                      134                                    2112.7164467534321              6.0294282711042967e-05           -5.077303854992326e-23                  0                                        0                                        0                                        254.06409870377357                  -0.33333333333333331         3.9663281196301294e-21           0.92217318105877932                  0.95460010023312591                    0.95460010023312591                 6.2975533074584089e-19             -1.1965332039111186e-17          -3.5266211266428715e-18           4.3279368100918122e-23       7.0372692474019807e-19    9                             4                           1                     0.29113555146034931  5.6860968542456925e-20 -5.147906617012561e-21        2.1018981230794534e-13              1.2596631163253118e-12       
                   -1.4154461302780289e-17                      143                                    2117.0936889210302              6.0318671186499148e-05            0                                    0                                        0                                        0                                        254.06409870377357                  -0.66666666666666663         3.9663281196301294e-21           0.92217318105877932                  0.92217318105877932                    0.95460010023312591                 6.2975533074584089e-19             -1.1965332039111186e-17          -3.5266211266428715e-18           4.3279368100918122e-23       7.0372692474019807e-19    10                            0                           2                     0.29113555146034931  5.6860968542456925e-20 -5.147906617012561e-21        0                                1.2596631163253118e-12       
                   -1.4154512594834748e-17                      158                                    2038.7166579499542              5.9046944545044179e-05           -5.129205445956827e-23                  0                                        0                                        0                                        254.06370602027633                  -0.66666666666666663         3.718647234744654e-21           0.86676383950914837                  0.92217318105877932                    0.95460010023312591                 6.2975338429252074e-19             -1.1965302845714029e-17          -3.5266096775541426e-18           5.7146860428760349e-23       7.0387075004573005e-19    11                            1                           2                     0.29113427292334348  7.9558556808375937e-21 -2.2229596755281514e-20        2.2605954864335785e-13              1.4857226649686696e-12       
                   -1.4154560010686635e-17                      173                                    1812.7329079010913              5.7684010935304798e-05           -4.7415851886811438e-23                  0                                        0                                        0                                        254.06328244653804                  -0.66666666666666663         3.1907283437709237e-21           0.91266613157098953                  0.92217318105877932                    0.95460010023312591                 6.2975128475662083e-19             -1.1965280478455321e-17          -3.5265974089096264e-18           7.1794551865575002e-23       7.043040690260562e-19    12                            2                           2                     0.29113274433164515  2.2229596755281514e-20 -2.9015473659525341e-20        2.2343449573278617e-13              1.7091571607014558e-12       
                   -1.4154608196780465e-17                      188                                    1934.2404966765919              5.673325195999852e-05           -4.818609383076716e-23                  0                                        0                                        0                                        254.0630863008171                   -0.66666666666666663         3.7271854231839896e-21           0.96609370625456059                  0.96609370625456059                    0.96609370625456059                 6.2975031262220257e-19             -1.1965238158198462e-17          -3.5265821134947979e-18           9.0426630620850725e-23       7.0364415023678692e-19    13                            3                           2                     0.29113102462204227  4.6799151063750552e-21 -8.4238471914751003e-21        2.300565489136665e-13              1.9392137096151223e-12       
                   -1.4154657837859233e-17                      202                                    1762.3792752583793              5.5278959069616125e-05           -4.9641078767952064e-23                  0                                        0                                        0                                        254.06272714937279                  -0.66666666666666663         4.6992482087196046e-21           0.94101198050009571                  0.96609370625456059                    0.96609370625456059                 6.2974853265659095e-19             -1.196518342068149e-17          -3.5265643028103475e-18           1.1230549627134156e-22       7.0252979927102305e-19    14                            4                           2                     0.29112917288841805  2.8781477904206591e-20  3.0887439702075368e-20        2.3268670436000015e-13              2.1719004139751226e-12       
                   -1.4154657837859233e-17                      211                                    1762.3792752583793              5.5321826945223684e-05            0                                    0                                        0                                        0                                        254.06272714937279                  -1                           4.6992482087196046e-21           0.94101198050009571                  0.94101198050009571                    0.96609370625456059                 6.2974853265659095e-19             -1.196518342068149e-17          -3.5265643028103475e-18           1.1230549627134156e-22       7.0252979927102305e-19    15                            0                           3                     0.29112917288841805  2.8781477904206591e-20  3.0887439702075368e-20        0                                2.1719004139751226e-12       
                   -1.4154704045372474e-17                      226                                    1862.4707745246701              5.4584929188033026e-05           -4.6207513241286232e-23                  0                                        0                                        0                                        254.06199532719296                  -1                           4.8647014672192716e-21           0.90732938367100213                  0.94101198050009571                    0.96609370625456059                 6.2974490560261896e-19             -1.1965140468341016e-17          -3.5265450460580215e-18           1.3563849678458562e-22       7.0223622345993996e-19    16                            1                           3                     0.2911270010693181  -1.0763804744662627e-20 -4.0247269914825475e-20        2.403564130444055e-13              2.4122568270195282e-12       
                   -1.4154743742264524e-17                      241                                    1709.7572624830354              5.3775799662238051e-05           -3.9696892049886338e-23                  0                                        0                                        0                                        254.06151204149353                  -1                           4.5843660914335537e-21           0.93493834869520098                  0.94101198050009571                    0.96609370625456059                 6.2974251031172548e-19             -1.1965104446041237e-17          -3.5265245765076349e-18           1.602287037321555e-22       7.023981751774568e-19    17                            2                           3                     0.29112458002256808  1.1465792010618885e-20 -5.1011074659488102e-20        2.3964656197827282e-13              2.6519033889978011e-12       
                   -1.4154787378026441e-17                      256                                    1402.7518327300961              5.3028154329619811e-05           -4.3635761916838266e-23                  0                                        0                                        0                                        254.06131750806972                  -1                           4.9401641873819101e-21           0.97396873774394488                  0.97396873774394488                    0.97396873774394488                 6.2974154620911533e-19             -1.196504947806559e-17          -3.5265024126929064e-18           1.8710121813542442e-22       7.0189570111742276e-19    18                            3                           3                     0.2911221346355804   1.6145707116993941e-20 -3.7439320851000443e-21        2.298054575321804e-13              2.8817088465299814e-12       
                   -1.415483133326856e-17                      270                                    1400.7709422489609              5.2001215024743276e-05           -4.3955242117625633e-23                  0                                        0                                        0                                        254.06076104340929                  -1                           5.7550156888672359e-21           0.99269586558118816                  0.99269586558118816                    0.99269586558118816                 6.2973878859220241e-19             -1.1964989208412812e-17          -3.5264794450078658e-18           2.1506751194485594e-22       7.0092844835910441e-19    19                            4                           3                     0.29111967506072833 -1.5443719851037684e-20 -4.7735134085025562e-20        2.1704896647426097e-13              3.0987578130042425e-12       
                   -1.415483133326856e-17                      279                                    1400.7709422489609              5.206325065076797e-05            0                                    0                                        0                                        0                                        254.06076104340929                  -1.3333333333333333          5.7550156888672359e-21           0.99269586558118816                  0.99269586558118816                    0.99269586558118816                 6.2973878859220241e-19             -1.1964989208412812e-17          -3.5264794450078658e-18           2.1506751194485594e-22       7.0092844835910441e-19    20                            0                           4                     0.29111967506072833 -1.5443719851037684e-20 -4.7735134085025562e-20        0                                3.0987578130042425e-12       
                   -1.4154866225391849e-17                      294                                    1267.2620570981633              5.1649246979046975e-05           -3.4892123288195609e-23                  0                                        0                                        0                                        254.0599642283459                   -1.3333333333333333          6.1597952658640544e-21           0.98385357570457188                  0.99269586558118816                    0.99269586558118816                 6.2973483999124216e-19             -1.1964942665141362e-17          -3.5264560254062195e-18           2.4337739700754236e-22       7.0039445250162114e-19    21                            1                           4                     0.29111703851673315  2.8079490638250334e-21 -2.9483465170162848e-20        2.1279516149612661e-13              3.3115529745003692e-12       
                   -1.4154897045395539e-17                      309                                    1377.3613860710987              5.1045947883251453e-05           -3.0820003689747206e-23                  0                                        0                                        0                                        254.05949232063799                  -1.3333333333333333          5.9217892103021842e-21           1.0251893012659785                   1.0251893012659785                     1.0251893012659785                  6.2973250122425736e-19             -1.1964903178849596e-17          -3.5264301634291996e-18           2.7440947742792595e-22       7.0050759697127032e-19    22                            2                           4                     0.29111405256723571 -2.8079490638250334e-21 -2.0123634957412738e-20        2.2536557040122766e-13              3.536918544901597e-12       
                   -1.4154935494103008e-17                      324                                    1260.8962037449724              5.0677799852106493e-05           -3.8448707470496683e-23                  0                                        0                                        0                                        254.05917602078236                  -1.3333333333333333          5.9288853501587324e-21           1.0926930556151913                   1.0926930556151913                     1.0926930556151913                  6.2973093353456545e-19             -1.1964844375335883e-17          -3.5264015110079977e-18           3.0889914245146713e-22       7.0034167421369755e-19    23                            3                           4                     0.29111084807954507  5.5690989765863156e-20 -4.9139108616938082e-20        2.3061666346880129e-13              3.7675352083703981e-12       
                   -1.415497655515079e-17                      338                                    1403.250048671508               4.9985073085793578e-05           -4.1061047785433095e-23                  0                                        0                                        0                                        254.05836613124046                  -1.3333333333333333          6.8171595553159887e-21           1.1445738876232858                   1.1445738876232858                     1.1445738876232858                  6.2972692049179927e-19             -1.1964766035735939e-17          -3.5263670234734475e-18           3.5059061742987335e-22       6.9926183339404936e-19    24                            4                           4                     0.29110705024076322  2.3867567042512781e-20 -4.6331159553113048e-20        2.5553064031563969e-13              4.0230658486860383e-12       
                   -1.415497655515079e-17                      347                                    1403.250048671508               5.0049928226918446e-05            0                                    0                                        0                                        0                                        254.05836613124046                  -1.6666666666666665          6.8171595553159887e-21           1.1445738876232858                   1.1445738876232858                     1.1445738876232858                  6.2972692049179927e-19             -1.1964766035735939e-17          -3.5263670234734475e-18           3.5059061742987335e-22       6.9926183339404936e-19    25                            0                           5                     0.29110705024076322  2.3867567042512781e-20 -4.6331159553113048e-20        0                                4.0230658486860383e-12       
                   -1.4155003386451358e-17                      368                                    1222.4459421002664              4.9955011472732959e-05           -2.6831300563598959e-23                  0                                        0                                        0                                        254.05757554569979                  -1.6666666666666665          7.2351295778468102e-21           1.1156324355492544                   1.1445738876232858                     1.1445738876232858                  6.2972300323717705e-19             -1.196471157608612e-17          -3.5263357044357286e-18           3.8828754456180466e-22       6.9869747371090676e-19    26                            1                           5                     0.29110350165456783  3.7907312361637948e-20 -1.6847694382950201e-20        2.2190811252146841e-13              4.2449739612075066e-12       
                   -1.4155028909576774e-17                      383                                    1244.9891470065463              4.9392069894882502e-05           -2.5523125416276314e-23                  0                                        0                                        0                                        254.05709833562511                  -1.6666666666666665          6.9321854650713233e-21           1.0948704866058006                   1.1445738876232858                     1.1445738876232858                  6.297206381231538e-19             -1.1964669626108974e-17          -3.5263048028598997e-18           4.252772592625436e-22       6.9886741854461375e-19    27                            2                           5                     0.29109995361381558 -1.0763804744662627e-20 -4.5395176531838035e-20        2.1083851328599686e-13              4.4558124744935033e-12       
                   -1.415505918780088e-17                      398                                    1217.5791978440861              4.9227410930170894e-05           -3.0278224105249271e-23                  0                                        0                                        0                                        254.05657463371335                  -1.6666666666666665          6.871990615494838e-21           1.0981477887233844                   1.1445738876232858                     1.1445738876232858                  6.297180426734371e-19             -1.196461102461185e-17          -3.5262713102254056e-18           4.6543856048973714e-22       6.9876767518695639e-19    28                            3                           5                     0.29109615381848397 -4.3055218978650508e-20 -5.1011074659488102e-20        2.1509970404225305e-13              4.6709121785357569e-12       
                   -1.4155088526043232e-17                      412                                    1167.2811811485299              4.8668999599020733e-05           -2.9338242355303296e-23                  0                                        0                                        0                                        254.05583244218849                  -1.6666666666666665          7.6318141470273984e-21           1.0764215978392486                   1.1445738876232858                     1.1445738876232858                  6.2971436543808371e-19             -1.1964534805363883e-17          -3.5262331875165742e-18           5.1133014338891452e-22       6.9782195710872384e-19    29                            4                           5                     0.29109187936223357  8.5642446446663516e-20 -6.8326760553075803e-20        2.2882399691579339e-13              4.8997361754515502e-12       