# ODT 1.0
# Table Start
# Title: mmArchive Data Table, Tue Mar 21 00:01:51 EDT 2023
# Columns: {MF_CurrentFlowEvolver::Total energy} {MF_CurrentFlowEvolver::Energy calc count} {MF_CurrentFlowEvolver::Max dm/dt} MF_CurrentFlowEvolver::dE/dt {MF_CurrentFlowEvolver::Delta E} {MF_CurrentFlowEvolver::Oersted field x} {MF_CurrentFlowEvolver::Oersted field y} {MF_CurrentFlowEvolver::Oersted field z} {MF_CurrentFlowEvolver::total resistance} MF_CurrentFlowEvolver::voltage Oxs_Exchange6Ngbr::Energy {Oxs_Exchange6Ngbr::Max Spin Ang} {Oxs_Exchange6Ngbr::Stage Max Spin Ang} {Oxs_Exchange6Ngbr::Run Max Spin Ang} Oxs_TwoSurfaceExchange:FF:Energy Oxs_TwoSurfaceExchange:AF:Energy Oxs_FixedZeeman:Bias:Energy Oxs_UniaxialAnisotropy::Energy Oxs_Demag::Energy    Oxs_TimeDriver::Iteration {Oxs_TimeDriver::Stage iteration} Oxs_TimeDriver::Stage Oxs_TimeDriver::mx   Oxs_TimeDriver::my   Oxs_TimeDriver::mz   {Oxs_TimeDriver::Last time step} {Oxs_TimeDriver::Simulation time}
# Units:                     J                                       {}                                   deg/ns                           J/s                             J                                   A/m                                      A/m                                      A/m                                       Ohm                                  V                            J                            deg                                  deg                                    deg                                 J                                J                              J                            J                        J                       {}                            {}                          {}                   {}                   {}                   {}                          s                                 s                
                   -1.4154146163707737e-17                      1                                      2728.4438916846884              7.1379284603799589e-05            0                                    0                                        0                                        0                                        254.06504065039371                   0                           0                             0                                    0                                      0                                   6.2976000000000018e-19             -1.1965440000000003e-17          -3.5266560000000006e-18           0                         7.0818983629226656e-19    0                             0                           0                     0.29113924050632911  0                    0                          0                                0                         
                   -1.4154147287924442e-17                      8                                      2727.8304129322009              7.1333431510166997e-05           -1.1242167053902131e-24                  0                                        0                                        0                                        254.06504064238121                   0                           5.8672624640647082e-25           0.013951343197544796                  0.013951343197544796                    0.013951343197544796                 6.2975999996025592e-19             -1.1965439999094562e-17          -3.5266559993374075e-18           9.3030006756815864e-28       7.0818812289072406e-19    1                             1                           0                     0.29113924046309553  5.027252555676329e-23 -9.3232683759815551e-23        3.4818381381975886e-15              3.4818381381975886e-15       
                   -1.4154151777078105e-17                      15                                     2721.8226366065182              7.1129479917093116e-05           -4.4891536648293309e-24                  0                                        0                                        0                                        254.06504044581592                   0                           1.4618638042141443e-23           0.06964281351506231                  0.06964281351506231                    0.06964281351506231                 6.2975999898576368e-19             -1.1965439976936932e-17          -3.5266559834665507e-18           2.3209587108125575e-26       7.0816954249198233e-19    2                             2                           0                     0.2911392394270011   1.049324715257532e-21 -4.3097265090934351e-22        1.3927352552790355e-14              1.7409190690987942e-14       
                   -1.4154169570068536e-17                      22                                     2642.0798884395967              7.0033148718141953e-05           -1.7792990429108847e-23                  0                                        0                                        0                                        254.06503613767913                   0                           2.4915388481893613e-22           0.28769785722023117                  0.28769785722023117                    0.28769785722023117                 6.2975997762830262e-19             -1.1965439503789958e-17          -3.5266557137121414e-18           4.0120854778814562e-25       7.0791611471189518e-19    3                             3                           0                     0.29113922174242762  6.8736253124883628e-22  2.2211315836897236e-22        5.5709410211161418e-14              7.3118600902149354e-14       
                   -1.4154227927206797e-17                      28                                     2397.2129806697039              6.7088907879519303e-05           -5.8357138261253746e-23                  0                                        0                                        0                                        254.06489587630091                   0                           2.5712452255119516e-21           0.93714170209574765                  0.93714170209574765                    0.93714170209574765                 6.2975928229994065e-19             -1.1965423389298323e-17          -3.5266522525854736e-18           5.1283640835729863e-24       7.0551205878746305e-19    4                             4                           0                     0.29113897788403786 -9.4037044168723765e-21  7.4001157619555565e-21        2.2283764084464567e-13              2.9595624174679503e-13       
                   -1.4154227927206797e-17                      30                                     2397.2129806697039              6.7106222518355471e-05            0                                    0                                        0                                        0                                        254.06489587630091                  -0.33333333333333331         2.5712452255119516e-21           0.93714170209574765                  0.93714170209574765                    0.93714170209574765                 6.2975928229994065e-19             -1.1965423389298323e-17          -3.5266522525854736e-18           5.1283640835729863e-24       7.0551205878746305e-19    5                             0                           1                     0.29113897788403786 -9.4037044168723765e-21  7.4001157619555565e-21        0                                2.9595624174679503e-13       
                   -1.4154296278537456e-17                      37                                     2854.5360538565778              6.5131143367591084e-05           -6.8351330658596051e-23                  0                                        0                                        0                                        254.06473673377218                  -0.33333333333333331         2.831286478553354e-21           0.95460010023392428                  0.95460010023392428                    0.95460010023392428                 6.2975849339006144e-19             -1.1965404874267969e-17          -3.5266467218904047e-18           1.1959512436144863e-23       7.0515357823986609e-19    6                             1                           1                     0.29113841210485059 -1.4785606789203692e-20  7.25021223120448e-21        2.7487179849463756e-13              5.7082804024143264e-13       
                   -1.4154357414353206e-17                      44                                     2325.6052048412248              6.3891749092868615e-05           -6.1135815750045678e-23                  0                                        0                                        0                                        254.06453715148831                  -0.33333333333333331         1.523622700745025e-21           0.77667273699076589                  0.95460010023392428                    0.95460010023392428                 6.2975750401096005e-19             -1.1965395628600155e-17          -3.5266401312257835e-18           1.9607593383909594e-23       7.0637761116764305e-19    7                             2                           1                     0.2911375130189669  -7.6852980887502866e-21  6.0838896382875719e-21        2.6521986830028272e-13              8.3604790854171526e-13       
                   -1.4154410529834757e-17                      57                                     2548.5192266303234              6.1780694327060102e-05           -5.3115481551173093e-23                  0                                        0                                        0                                        254.06434772930558                  -0.33333333333333331         2.706713623459451e-21           0.93321606717288352                  0.95460010023392428                    0.95460010023392428                 6.2975656507258647e-19             -1.1965370281454227e-17          -3.52663152418532e-18           3.0284919702075113e-23       7.0509771218904136e-19    8                             3                           1                     0.29113656642159919 -2.2346594632940889e-20 -5.5573991888203785e-21        2.1342539547680104e-13              1.0494733040185164e-12       
                   -1.4154461302873307e-17                      63                                     2112.7164467508292              6.0294282711208816e-05           -5.077303855029501e-23                  0                                        0                                        0                                        254.06409870377357                  -0.33333333333333331         3.9663281196386592e-21           0.92217318106196455                  0.95460010023392428                    0.95460010023392428                 6.2975533074584089e-19             -1.1965332039111186e-17          -3.5266211266428715e-18           4.3279368101284365e-23       7.037269246471693e-19    9                             4                           1                     0.29113555146034881 -1.9896951569447695e-20  6.0838896382875719e-21        2.1018981230903869e-13              1.259663116327555e-12       
                   -1.4154461302873307e-17                      65                                     2117.0936889184009              6.0318671186664665e-05            0                                    0                                        0                                        0                                        254.06409870377357                  -0.66666666666666663         3.9663281196386592e-21           0.92217318106196455                  0.92217318106196455                    0.95460010023392428                 6.2975533074584089e-19             -1.1965332039111186e-17          -3.5266211266428715e-18           4.3279368101284365e-23       7.037269246471693e-19    10                            0                           2                     0.29113555146034881 -1.9896951569447695e-20  6.0838896382875719e-21        0                                1.259663116327555e-12       
                   -1.4154512594927769e-17                      72                                     2038.7166579547923              5.9046944545198454e-05           -5.1292054459807401e-23                  0                                        0                                        0                                        254.06370602027633                  -0.66666666666666663         3.7186472347397188e-21           0.86676383951121461                  0.92217318106196455                    0.95460010023392428                 6.2975338429252074e-19             -1.1965302845714029e-17          -3.5266096775541426e-18           5.7146860429256914e-23       7.0387074995271427e-19    11                            1                           2                     0.29113427292334354 -2.6324522473359688e-21 -3.2993401499944138e-20        2.2605954864416534e-13              1.4857226649717205e-12       
                   -1.4154560010779656e-17                      79                                     1812.7329079051447              5.7684010935482824e-05           -4.7415851886953949e-23                  0                                        0                                        0                                        254.06328244653804                  -0.66666666666666663         3.1907283437706235e-21           0.91266613157314436                  0.92217318106196455                    0.95460010023392428                 6.2975128475662073e-19             -1.1965280478455321e-17          -3.5265974089096256e-18           7.1794551866256001e-23       7.0430406893303484e-19    12                            2                           2                     0.2911327443316426  -2.1118116917517437e-20 -4.9139108616938085e-21        2.2343449573349076e-13              1.7091571607052111e-12       
                   -1.4154608196873486e-17                      86                                     1934.2404966875222              5.6733251960152612e-05           -4.8186093831121295e-23                  0                                        0                                        0                                        254.06308630081705                  -0.66666666666666663         3.7271854231997341e-21           0.96609370625690982                  0.96609370625690982                    0.96609370625690982                 6.2975031262220247e-19             -1.1965238158198462e-17          -3.5265821134947963e-18           9.042663062176593e-23       7.0364415014374852e-19    13                            3                           2                     0.29113102462204354  1.3571753808487661e-20  4.328921473396926e-21        2.3005654891419828e-13              1.9392137096194097e-12       
                   -1.4154657837952254e-17                      92                                     1762.3792752482584              5.527895906980273e-05           -4.9641078768008146e-23                  0                                        0                                        0                                        254.06272714937279                  -0.66666666666666663         4.6992482087332237e-21           0.941011980498073                    0.96609370625690982                    0.96609370625690982                 6.2974853265659095e-19             -1.196518342068149e-17          -3.526564302810346e-18           1.1230549627243663e-22       7.0252979917798628e-19    14                            4                           2                     0.29112917288841655 -3.6269342074406677e-21  8.8918387021126053e-21        2.3268670436009981e-13              2.1719004139795094e-12       
                   -1.4154657837952254e-17                      94                                     1762.3792752482584              5.5321826945409923e-05            0                                    0                                        0                                        0                                        254.06272714937279                  -1                           4.6992482087332237e-21           0.941011980498073                    0.941011980498073                      0.96609370625690982                 6.2974853265659095e-19             -1.196518342068149e-17          -3.526564302810346e-18           1.1230549627243663e-22       7.0252979917798628e-19    15                            0                           3                     0.29112917288841655 -3.6269342074406677e-21  8.8918387021126053e-21        0                                2.1719004139795094e-12       
                   -1.4154704045465495e-17                      101                                    1862.4707745408732              5.4584929188204818e-05           -4.6207513241424305e-23                  0                                        0                                        0                                        254.0619953271929                   -1                           4.8647014672197192e-21           0.90732938367124938                  0.941011980498073                      0.96609370625690982                 6.2974490560261886e-19             -1.1965140468341016e-17          -3.52654504605802e-18           1.3563849678591503e-22       7.0223622336691601e-19    16                            1                           3                     0.29112700106931927  9.1258344574313586e-21  1.5911711361675187e-20        2.4035641304501438e-13              2.4122568270245236e-12       
                   -1.4154743742357545e-17                      108                                    1709.7572624798652              5.377579966244638e-05           -3.9696892050020691e-23                  0                                        0                                        0                                        254.06151204149353                  -1                           4.5843660914341338e-21           0.9349383486988363                   0.941011980498073                      0.96609370625690982                 6.2974251031172548e-19             -1.1965104446041236e-17          -3.5265245765076341e-18           1.6022870373369521e-22       7.0239817508443179e-19    17                            2                           3                     0.29112458002256919 -7.4878641702000886e-21  5.8498938829688194e-21        2.3964656197795031e-13              2.6519033890024742e-12       
                   -1.4154787378119462e-17                      115                                    1402.7518327409325              5.302815432979989e-05           -4.3635761917011228e-23                  0                                        0                                        0                                        254.06131750806978                  -1                           4.9401641873937448e-21           0.97396873774623494                  0.97396873774623494                    0.97396873774623494                 6.2974154620911523e-19             -1.1965049478065589e-17          -3.5265024126929048e-18           1.8710121813701395e-22       7.0189570102438628e-19    18                            3                           3                     0.29112213463557851  2.0357630712731491e-20  8.4238471914751003e-21        2.2980545753036266e-13              2.8817088465328369e-12       
                   -1.4154831333361581e-17                      121                                    1400.770942254861               5.200121502493949e-05           -4.3955242117886581e-23                  0                                        0                                        0                                        254.06076104340923                  -1                           5.755015688887465e-21           0.99269586558108225                  0.99269586558108225                    0.99269586558108225                 6.2973878859220231e-19             -1.1964989208412811e-17          -3.5264794450078643e-18           2.1506751194673983e-22       7.0092844826605869e-19    19                            4                           3                     0.29111967506072645 -3.3110399377603516e-20  2.1527609489325254e-20        2.1704896647477049e-13              3.0987578130076069e-12       
                   -1.4154831333361581e-17                      123                                    1400.770942254861               5.2063250650965071e-05            0                                    0                                        0                                        0                                        254.06076104340923                  -1.3333333333333333          5.755015688887465e-21           0.99269586558108225                  0.99269586558108225                    0.99269586558108225                 6.2973878859220231e-19             -1.1964989208412811e-17          -3.5264794450078643e-18           2.1506751194673983e-22       7.0092844826605869e-19    20                            0                           4                     0.29111967506072645 -3.3110399377603516e-20  2.1527609489325254e-20        0                                3.0987578130076069e-12       
                   -1.415486622548487e-17                      130                                    1267.2620570842394              5.1649246979239292e-05           -3.4892123288626286e-23                  0                                        0                                        0                                        254.0599642283459                   -1.3333333333333333          6.1597952658767038e-21           0.98385357571762333                  0.99269586558108225                    0.99269586558108225                 6.2973483999124216e-19             -1.1964942665141361e-17          -3.5264560254062172e-18           2.4337739701009586e-22       7.0039445240858091e-19    21                            1                           4                     0.29111703851673576 -1.0295813234025122e-20  7.7218599255188419e-21        2.1279516149941524e-13              3.3115529745070222e-12       
                   -1.4154897045488559e-17                      137                                    1377.3613860748023              5.1045947883468795e-05           -3.0820003690162003e-23                  0                                        0                                        0                                        254.05949232063804                  -1.3333333333333333          5.9217892102985325e-21           1.0251893012779503                   1.0251893012779503                     1.0251893012779503                  6.2973250122425727e-19             -1.1964903178849593e-17          -3.5264301634291965e-18           2.7440947743115673e-22       7.0050759687824347e-19    22                            2                           4                     0.29111405256723433 -1.4039745319125167e-21  2.5973528840381558e-20        2.2536557040383363e-13              3.5369185449108559e-12       
                   -1.4154935494196029e-17                      144                                    1260.8962037388255              5.0677799852302477e-05           -3.8448707471225084e-23                  0                                        0                                        0                                        254.05917602078242                  -1.3333333333333333          5.9288853501907081e-21           1.0926930556294712                   1.0926930556294712                     1.0926930556294712                  6.2973093353456535e-19             -1.1964844375335879e-17          -3.5264015110079947e-18           3.0889914245527921e-22       7.0034167412063219e-19    23                            3                           4                     0.2911108480795418  -3.7439320851000443e-21  6.3412849691382005e-20        2.3061666346987429e-13              3.7675352083807298e-12       
                   -1.4154976555243814e-17                      150                                    1403.2500486683316              4.9985073086039319e-05           -4.1061047785153997e-23                  0                                        0                                        0                                        254.0583661312404                   -1.3333333333333333          6.8171595553653858e-21           1.1445738876366913                   1.1445738876366913                     1.1445738876366913                  6.2972692049179907e-19             -1.1964766035735936e-17          -3.5263670234734436e-18           3.5059061743390393e-22       6.9926183330096676e-19    24                            4                           4                     0.29110705024076355 -1.9655643446775234e-20  5.6158981276500668e-21        2.5553064031432541e-13              4.0230658486950557e-12       
                   -1.4154976555243814e-17                      152                                    1403.2500486683316              5.0049928227164147e-05            0                                    0                                        0                                        0                                        254.0583661312404                   -1.6666666666666667          6.8171595553653858e-21           1.1445738876366913                   1.1445738876366913                     1.1445738876366913                  6.2972692049179907e-19             -1.1964766035735936e-17          -3.5263670234734436e-18           3.5059061743390393e-22       6.9926183330096676e-19    25                            0                           5                     0.29110705024076355 -1.9655643446775234e-20  5.6158981276500668e-21        0                                4.0230658486950557e-12       
                   -1.4155003386544379e-17                      165                                    1222.4459421008473              4.9955011472934756e-05           -2.6831300563522405e-23                  0                                        0                                        0                                        254.05757554569985                  -1.6666666666666667          7.2351295778640969e-21           1.1156324355632581                   1.1445738876366913                     1.1445738876366913                  6.2972300323717705e-19             -1.1964711576086119e-17          -3.5263357044357255e-18           3.8828754456500318e-22       6.9869747361785931e-19    26                            1                           5                     0.29110350165456733 -2.1059617978687751e-20  6.4582828467975763e-20        2.2190811251466762e-13              4.2449739612097232e-12       
                   -1.4155028909669795e-17                      172                                    1244.9891470057778              4.9392069895076235e-05           -2.5523125416083263e-23                  0                                        0                                        0                                        254.05709833562506                  -1.6666666666666667          6.9321854650932127e-21           1.09487048662066                     1.1445738876366913                     1.1445738876366913                  6.297206381231538e-19             -1.1964669626108972e-17          -3.5263048028598966e-18           4.2527725926512564e-22       6.9886741845156331e-19    27                            2                           5                     0.29109995361381352 -3.041944819143786e-21 -1.4507736829762671e-20        2.1083851328080674e-13              4.4558124744905298e-12       
                   -1.4155059187893901e-17                      179                                    1217.5791978453715              4.9227410930368375e-05           -3.0278224105352473e-23                  0                                        0                                        0                                        254.0565746337133                   -1.6666666666666667          6.8719906155037786e-21           1.0981477887380033                   1.1445738876366913                     1.1445738876366913                  6.297180426734371e-19             -1.196461102461185e-17          -3.5262713102254025e-18           4.6543856049221339e-22       6.9876767509391953e-19    28                            3                           5                     0.2910961538184838  -2.3867567042512781e-20  2.9483465170162848e-20        2.1509970404025739e-13              4.6709121785307873e-12       
                   -1.4155088526136256e-17                      185                                    1167.2811811460579              4.8668999599200121e-05           -2.9338242355529467e-23                  0                                        0                                        0                                        254.05583244218849                  -1.6666666666666667          7.631814147011198e-21           1.076421597845485                    1.1445738876366913                     1.1445738876366913                  6.2971436543808381e-19             -1.1964534805363883e-17          -3.5262331875165719e-18           5.1133014339081205e-22       6.9782195701571384e-19    29                            4                           5                     0.29109187936222897 -3.4631371787175408e-20 -9.3598302127501108e-22        2.2882399691155222e-13              4.8997361754423398e-12       