# ODT 1.0
# Table Start
# Title: mmArchive Data Table, Tue Jan 03 18:02:22 EST 2023
# Columns: {Oxs_RungeKuttaEvolve:evolver:Total energy} {Oxs_RungeKuttaEvolve:evolver:Energy calc count} {Oxs_RungeKuttaEvolve:evolver:Max dm/dt} Oxs_RungeKuttaEvolve:evolver:dE/dt {Oxs_RungeKuttaEvolve:evolver:Delta E} Oxs_Exchange6Ngbr::Energy {Oxs_Exchange6Ngbr::Max Spin Ang} {Oxs_Exchange6Ngbr::Stage Max Spin Ang} {Oxs_Exchange6Ngbr::Run Max Spin Ang} Oxs_UZeeman::Energy  Oxs_UZeeman::B       Oxs_UZeeman::Bx      Oxs_UZeeman::By      Oxs_UZeeman::Bz      Oxs_Demag::Energy    YY_TransformStageMEL:MELField:Energy {YY_TransformStageMEL:MELField:B max} {YY_TransformStageMEL:MELField:Bx max} {YY_TransformStageMEL:MELField:By max} {YY_TransformStageMEL:MELField:Bz max} Oxs_TimeDriver::Iteration {Oxs_TimeDriver::Stage iteration} Oxs_TimeDriver::Stage Oxs_TimeDriver::mx   Oxs_TimeDriver::my   Oxs_TimeDriver::mz   {Oxs_TimeDriver::Last time step} {Oxs_TimeDriver::Simulation time}
# Units:                        J                                             {}                                         deg/ns                                 J/s                                   J                                J                            deg                                  deg                                    deg                           J                 mT                   mT                   mT                   mT                     J                             J                                    mT                                     mT                                     mT                                     mT                              {}                            {}                          {}                   {}                   {}                   {}                          s                                 s                
                      -3.0207902953580769e-17                            1                                            0.014439267102617982                  -3.0577992175311497e-19                  0                               6.2096171255257417e-20           4.7046929425281787                   4.7046929425281787                     4.7046929425281787           -3.4327589408336606e-17  500.00099999899999   500                  1                    0                    4.0575902835005788e-18          0                                    0                                      0                                      0                                      0                               0                             0                           0                     0.99789207352705156  0.0014837064830376509 -3.6020352189155662e-07        0                                0                         
                      -3.0207902953580886e-17                            7                                            0.014342260814276477                  -3.0480798046152777e-19                 -1.1452473700046541e-31             6.2096171327553264e-20           4.7046930040395178                   4.7046930040395178                     4.7046930040395178           -3.4327589408384055e-17  500.00099999899999   500                  1                    0                    4.0575902834756188e-18          0                                    0                                      0                                      0                                      0                               1                             1                           0                     0.99789207349285136  0.0014837242726911024 -3.6154648836371814e-07        3.7500000000000002e-13              3.7500000000000002e-13       
                      -3.0207902953581336e-17                            13                                           0.014099634222608872                  -3.0066691740411648e-19                 -4.4835172593593607e-31             6.209617176710929e-20           4.7046930942964718                   4.7046930942964718                     4.7046930942964718           -3.4327589408536182e-17  500.00099999899999   500                  1                    0                    4.0575902831877369e-18          0                                    0                                      0                                      0                                      0                               2                             2                           0                     0.99789207335579655  0.0014837950114216919 -3.6118375169738669e-07        1.5000000000000001e-12              1.875e-12                 
                      -3.0207902953581669e-17                            25                                           0.013960823074010809                  -2.9413323631992285e-19                 -3.3742375671863562e-31             6.2096172205050076e-20           4.7046929751562079                   4.7046930942964718                     4.7046930942964718           -3.4327589408618063e-17  500.00099999899999   500                  1                    0                    4.057590282831342e-18          0                                    0                                      0                                      0                                      0                               3                             3                           0                     0.99789207325202223  0.0014838480883077045 -3.5486502831604135e-07        1.151974499204395e-12              3.026974499204395e-12       
                      -3.0207902953581983e-17                            31                                           0.013749618812273271                  -2.8520705802091842e-19                 -3.1021237373352055e-31             6.2096172525824758e-20           4.7046930924557024                   4.7046930942964718                     4.7046930942964718           -3.432758940868871e-17  500.00099999899999   500                  1                    0                    4.0575902825809018e-18          0                                    0                                      0                                      0                                      0                               4                             4                           0                     0.9978920731570603   0.0014838965963179908 -3.4429420910274805e-07        1.0907721412958923e-12              4.1177466405002871e-12       
                      -3.0207902953581983e-17                            32                                           0.013749618812273271                  -2.8520705802091842e-19                  0                               6.2096172525824758e-20           4.7046930924557024                   4.7046930924557024                     4.7046930942964718           -3.432758940868871e-17  500.00099999899999   500                  1                    0                    4.0575902825809018e-18          0                                    0                                      0                                      0                                      0                               5                             0                           1                     0.9978920731570603   0.0014838965963179908 -3.4429420910274805e-07        0                                4.1177466405002871e-12       
                      -3.0204781727258412e-17                            38                                           0.14875255893282019                   6.0032214661170968e-09                  3.1212263235681975e-21             6.2096239352397109e-20           4.7046954917531307                   4.7046954917531307                     4.7046954917531307           -3.4327589334919929e-17  500.00099999899999   500                  1                    0                    4.0575901419870568e-18          3.1212263220611118e-21                  0.091000149014955567                   -0.091000148991517052                   -2.0653837683873462e-06                   -2.2210290226335473e-09             6                             1                           1                     0.99789207092290866  0.0014839414515494603 -3.3595047651409703e-07        1.0383746183323572e-12              5.1561212588326442e-12       
                      -3.0195739788479384e-17                            44                                           0.56073729441611542                   1.1777225258042273e-08                  9.0419387790330648e-21             6.2096831017484789e-20           4.7047168186744512                   4.7047168186744512                     4.7047168186744512           -3.4327588698247543e-17  500.00099999899999   500                  1                    0                    4.0575889137464978e-18          1.2163165004175523e-20                  0.3546201852052801                    -0.35462018511397458                   -8.0472018653550534e-06                   -9.9365749574848092e-09             7                             2                           1                     0.99789205231923106  0.001483989331568373 -3.561754691013173e-07        1.0156843190564125e-12              6.1718055778890567e-12       
                      -3.0169244921077868e-17                            50                                           1.746219910548126                     2.0607371007879583e-08                  2.6494867401517509e-20             6.2101142769938476e-20           4.7048735110401747                   4.7048735110401747                     4.7048735110401747           -3.4327584111073289e-17  500.00099999899999   500                  1                    0                    4.0575800178593537e-18          3.8658029366130811e-20                  1.1270849375946494                    -1.1270849373049729                    -2.5553473448199018e-05                   -4.9796898495136204e-09             8                             3                           1                     0.99789191874398719  0.001484102908610838 -5.2017858057904202e-07        1.6305347683958621e-12              7.8023403462849189e-12       
                      -3.0129261140586071e-17                            62                                           3.4490130761565871                    2.8534813957505297e-08                  3.9983780491793997e-20             6.2113891386118918e-20           4.7053524043186057                   4.7053524043186057                     4.7053524043186057           -3.4327570434474513e-17  500.00099999899999   500                  1                    0                    4.0575536159889386e-18          7.8641786513385829e-20                  2.2928230785116996                    -2.2928230779097434                    -5.2539086537919361e-05                    4.7433703186416938e-08             9                             4                           1                     0.99789152073277654  0.0014843207415248855 -9.3112981994782556e-07        1.6216338441177073e-12              9.4239741904026255e-12       
# Table End
