# ODT 1.0
# Table Start
# Title: Run on stdprob2-75.mif, with cellsize=20e-9
# Units:      {}       mT      mT      mT        {}       {}       {}    {J/m^3}
# Columns: Iteration    Bx      By      Bz      Mx/Ms    My/Ms    Mz/Ms    Energy
    119     100.0   100.0   100.0    0.4591   0.8676   0.0882    0.04453
    193      90.0    90.0    90.0    0.4408   0.8764   0.0803    0.04194
    277      80.0    80.0    80.0    0.4199   0.8857   0.0722    0.03920
    377      70.0    70.0    70.0    0.3957   0.8955   0.0639    0.03630
    498      60.0    60.0    60.0    0.3677   0.9058   0.0554    0.03320
    644      50.0    50.0    50.0    0.3350   0.9162   0.0468    0.02987
    829      40.0    40.0    40.0    0.2967   0.9264   0.0379    0.02627
   1079      30.0    30.0    30.0    0.2516   0.9359   0.0287    0.02235
   1420      20.0    20.0    20.0    0.1980   0.9439   0.0194    0.01803
   1931      10.0    10.0    10.0    0.1338   0.9486   0.0099    0.01323
   2735       0.0     0.0     0.0    0.0561   0.9476   0.0000    0.00780
   3271      -1.0    -1.0    -1.0    0.0474   0.9470  -0.0010    0.00997
   3840      -2.0    -2.0    -2.0    0.0385   0.9463  -0.0020    0.01214
   4432      -3.0    -3.0    -3.0    0.0295   0.9455  -0.0030    0.01429
   5059      -4.0    -4.0    -4.0    0.0202   0.9445  -0.0040    0.01644
   5724      -5.0    -5.0    -5.0    0.0108   0.9434  -0.0051    0.01858
   6429      -6.0    -6.0    -6.0    0.0011   0.9422  -0.0061    0.02071
   7172      -7.0    -7.0    -7.0   -0.0088   0.9408  -0.0071    0.02283
   7959      -8.0    -8.0    -8.0   -0.0190   0.9392  -0.0081    0.02494
   8791      -9.0    -9.0    -9.0   -0.0294   0.9375  -0.0091    0.02704
   9687     -10.0   -10.0   -10.0   -0.0401   0.9355  -0.0102    0.02912
  10635     -11.0   -11.0   -11.0   -0.0511   0.9332  -0.0112    0.03120
  11716     -12.0   -12.0   -12.0   -0.0627   0.9304  -0.0124    0.03327
  25018     -13.0   -13.0   -13.0   -0.0980  -0.8808  -0.0138    0.01514
  26279     -14.0   -14.0   -14.0   -0.1044  -0.8838  -0.0148    0.01573
  28286     -15.0   -15.0   -15.0   -0.1109  -0.8873  -0.0158    0.01630
  29634     -16.0   -16.0   -16.0   -0.1175  -0.8917  -0.0167    0.01687
  30916     -17.0   -17.0   -17.0   -0.1236  -0.8942  -0.0177    0.01743
  32460     -18.0   -18.0   -18.0   -0.1307  -0.8976  -0.0186    0.01798
  33607     -19.0   -19.0   -19.0   -0.1371  -0.9000  -0.0196    0.01852
  35706     -20.0   -20.0   -20.0   -0.1440  -0.9032  -0.0206    0.01905
  39050     -21.0   -21.0   -21.0   -0.2038  -0.9432  -0.0204    0.01849
  39252     -22.0   -22.0   -22.0   -0.2095  -0.9425  -0.0213    0.01893
  39448     -23.0   -23.0   -23.0   -0.2151  -0.9417  -0.0222    0.01938
  39634     -24.0   -24.0   -24.0   -0.2206  -0.9410  -0.0232    0.01981
  39814     -25.0   -25.0   -25.0   -0.2260  -0.9402  -0.0241    0.02025
  39989     -26.0   -26.0   -26.0   -0.2313  -0.9394  -0.0250    0.02068
  40158     -27.0   -27.0   -27.0   -0.2365  -0.9386  -0.0260    0.02110
  40319     -28.0   -28.0   -28.0   -0.2416  -0.9377  -0.0269    0.02152
  40477     -29.0   -29.0   -29.0   -0.2466  -0.9368  -0.0278    0.02194
  40630     -30.0   -30.0   -30.0   -0.2516  -0.9360  -0.0287    0.02235
  40781     -31.0   -31.0   -31.0   -0.2564  -0.9351  -0.0297    0.02276
  40924     -32.0   -32.0   -32.0   -0.2612  -0.9341  -0.0306    0.02316
  41066     -33.0   -33.0   -33.0   -0.2659  -0.9332  -0.0315    0.02356
  41199     -34.0   -34.0   -34.0   -0.2705  -0.9323  -0.0324    0.02396
  41333     -35.0   -35.0   -35.0   -0.2751  -0.9313  -0.0333    0.02435
  41461     -36.0   -36.0   -36.0   -0.2796  -0.9304  -0.0342    0.02474
  41585     -37.0   -37.0   -37.0   -0.2840  -0.9294  -0.0351    0.02513
  41706     -38.0   -38.0   -38.0   -0.2883  -0.9284  -0.0361    0.02551
  41825     -39.0   -39.0   -39.0   -0.2925  -0.9274  -0.0370    0.02589
  41938     -40.0   -40.0   -40.0   -0.2967  -0.9264  -0.0379    0.02627
  42051     -41.0   -41.0   -41.0   -0.3008  -0.9254  -0.0388    0.02664
  42160     -42.0   -42.0   -42.0   -0.3049  -0.9244  -0.0397    0.02701
  42266     -43.0   -43.0   -43.0   -0.3089  -0.9234  -0.0406    0.02738
  42369     -44.0   -44.0   -44.0   -0.3128  -0.9224  -0.0414    0.02774
  42469     -45.0   -45.0   -45.0   -0.3166  -0.9213  -0.0423    0.02811
  42567     -46.0   -46.0   -46.0   -0.3204  -0.9203  -0.0432    0.02846
  42662     -47.0   -47.0   -47.0   -0.3241  -0.9193  -0.0441    0.02882
  42755     -48.0   -48.0   -48.0   -0.3278  -0.9182  -0.0450    0.02917
  42846     -49.0   -49.0   -49.0   -0.3314  -0.9172  -0.0459    0.02952
  42935     -50.0   -50.0   -50.0   -0.3350  -0.9162  -0.0468    0.02987
# Table End
