# ODT 1.0
# Table Start
# Title: Test data for logarithmic scaling
# Units:      {}       mT      mT      mT        {}      "A/m"     "A per m"      {}         {}         burritos
# Columns:    p1       p10     m1      m10      flat    repeatA     repeatB   "Spiral x"  "Spiral y"    "Zero"
               1        1      5        1        0        1           1          0.1         0.1          0
               2       10      4       0.1       0        2          10          0.1         5            0
               3       1e2     3       1e-2      3        2.0001     10.0001     5           5            0
               4       1e3     2       1e-3      3        2.01       10.01       5           1            0
               5       1e4     1       1e-4      3        3         100          1           1            0
               6       1e5     0       1e-5      4        3         100          1           4            0
               7       1e6    -1       1e-6      4        3.9       999.         4           4            0
               8       1e7    -2       1e-7      5        3.99      999.9        4           2            0
               9       1e5    -3       1e-8      5        3.999     999.99       2           2            0
              10       1e3    -4       1e-9      5        3.9999    1000.        2           3            0
              11       10     -5       1e-10     5        4         1000.01      3           3            0
              12       0.1    -6       1e-11     5        4.0001    1000.1       3           2            0
# Table End
