# ODT 1.0
# Table Start
# Title: mmArchive Data Table, Wed Jun 11 15:42:33 EDT 2014
# Columns: {Oxs_EulerEvolve::Total energy} {Oxs_EulerEvolve::Energy calc count} {Oxs_EulerEvolve::Max dm/dt} Oxs_EulerEvolve::dE/dt {Oxs_EulerEvolve::Delta E} Oxs_Exchange6Ngbr:ErFeDyFe:Energy {Oxs_Exchange6Ngbr:ErFeDyFe:Max Spin Ang} {Oxs_Exchange6Ngbr:ErFeDyFe:Stage Max Spin Ang} {Oxs_Exchange6Ngbr:ErFeDyFe:Run Max Spin Ang} Southampton_CubicAnisotropy8:cubic:Energy Oxs_UZeeman::Energy  Oxs_UZeeman::B       Oxs_UZeeman::Bx      Oxs_UZeeman::By      Oxs_UZeeman::Bz      Oxs_TimeDriver::Iteration {Oxs_TimeDriver::Stage iteration} Oxs_TimeDriver::Stage Oxs_TimeDriver::mx   Oxs_TimeDriver::my   Oxs_TimeDriver::mz   {Oxs_TimeDriver::Last time step} {Oxs_TimeDriver::Simulation time}
# Units:                  J                                 {}                             deg/ns                     J/s                       J                              J                                    deg                                          deg                                            deg                                          J                              J                 mT                   mT                   mT                   mT                        {}                            {}                          {}                   {}                   {}                   {}                          s                                 s                
                -7.8188671500000018e-19                1                                63.757533334107194       -1.2339092299475942e-13      0                             0                                     0                                            0                                              0                                          -8.058591500000002e-20            -7.013008000000002e-19  20000.001249999961   5                    5                    20000                  0                             0                           0                     0                    0                    1                          0                                0                         
                -7.8188673561646201e-19                2                                84.162858487637024       -2.1501123527251201e-13     -2.0616461802201233e-26           0                                     0                                            0                                              0                                          -8.058592694473202e-20            -7.0130080867173002e-19  20000.001249999961   5                    5                    20000                  1                             1                           0                     0.00016557646857472786 -5.5192156191575952e-05  0.99999998476912921        1.5684421082599323e-13              1.5684421082599323e-13       
                -7.818867743355164e-19                3                                108.27130638598045       -3.5583359922903275e-13     -3.8719054449247787e-26           0                                     0                                            0                                              0                                          -8.0585984416748488e-20            -7.0130078991876796e-19  20000.001249999961   5                    5                    20000                  2                             2                           0                     0.0003953920004326138 -0.00011415828121804812  0.99999991531652288        1.6151997051773885e-13              3.1836418134373208e-13       
                -7.8188685254779077e-19                4                                143.07637636172745       -6.2137827402469402e-13     -7.8212274310135419e-26           0                                     0                                            0                                              0                                          -8.0586165094439558e-20            -7.0130068745335121e-19  20000.001249999961   5                    5                    20000                  3                             3                           0                     0.00074687587155474844 -0.0001961834691698783  0.99999970184419495        1.9099850335765738e-13              5.0936268470138949e-13       
                -7.8188699867424466e-19                5                                190.78525396345998       -1.1048665071232161e-12     -1.4612645388471722e-25           0                                     0                                            0                                              0                                          -8.0586606511877618e-20            -7.0130039216236703e-19  20000.001249999961   5                    5                    20000                  4                             4                           0                     0.0012388028360075605 -0.00030709722387123908  0.99999918552908262        2.0194031301679767e-13              7.1130299771818716e-13       
                -7.7627659684375751e-19                6                                191.57802852449564       -1.1140677413594933e-12      0                             0                                     0                                            0                                              0                                          -8.0586606511877618e-20            -6.9568999033187988e-19  19840.001260080608   5                    5                    19840                  5                             0                           1                     0.0012388028360075605 -0.00030709722387123908  0.99999918552908262        0                                7.1130299771818716e-13       
                -7.7627686492257117e-19                7                                258.32892004339521       -2.0256586194881927e-12     -2.6807881369175453e-25           0                                     0                                            0                                              0                                          -8.0587560522642763e-20            -6.9568930439992846e-19  19840.001260080608   5                    5                    19840                  6                             1                           1                     0.0019093307589327321 -0.00046325089963626431  0.99999806992546592        2.0590312256264856e-13              9.1720612028083572e-13       
                -7.7627733998214908e-19                8                                345.247212492362         -3.6180999593920353e-12     -4.7505957785047951e-25           0                                     0                                            0                                              0                                          -8.0589439543564273e-20            -6.9568790043858474e-19  19840.001260080608   5                    5                    19840                  7                             2                           1                     0.0027923731226212338 -0.00066506560930410419  0.99999588016155316        2.0090393586471962e-13              1.1181100561455553e-12       
                -7.762781989969017e-19                9                                462.41587230529387       -6.4906122491303202e-12     -8.5901475264683554e-25           0                                     0                                            0                                              0                                          -8.059310039262313e-20            -6.9568509860427859e-19  19840.001260080608   5                    5                    19840                  8                             3                           1                     0.0039851032881661778 -0.00093680289961662103  0.99999162064094815        2.0301396408769286e-13              1.3211240202332482e-12       
                -7.7627974321557669e-19                10                               619.53798697699392       -1.1650808935356459e-11     -1.5442186750358818e-24           0                                     0                                            0                                              0                                          -8.0600039807958144e-20            -6.9567970340761857e-19  19840.001260080608   5                    5                    19840                  9                             4                           1                     0.0055855897982536942 -0.0013011613636009947  0.9999835539476194         2.0338536518199044e-13              1.5245093854152387e-12       
                -7.7066942908461421e-19                11                               623.2442922299881        -1.1790624794852556e-11      0                             0                                     0                                            0                                              0                                          -8.0600039807958144e-20            -6.9006938927665609e-19  19680.001270325163   5                    5                    19680                  10                            0                           2                     0.0055855897982536942 -0.0013011613636009947  0.9999835539476194         0                                1.5245093854152387e-12       
                -7.7067222968702865e-19                12                               842.74052692427654       -2.155797472535342e-11     -2.8006024144487314e-24           0                                     0                                            0                                              0                                          -8.0613005522703181e-20            -6.9005922416432556e-19  19680.001270325163   5                    5                    19680                  11                            1                           2                     0.0077380824358488235 -0.0018179677742101925  0.99996840803766796        2.0351068439646083e-13              1.7280200698116994e-12       
                -7.7067716448267181e-19                13                               1124.4276049906823       -3.8378075936251066e-11     -4.9347956430956413e-24           0                                     0                                            0                                              0                                          -8.0636288875916852e-20            -6.9004087560675495e-19  19680.001270325163   5                    5                    19680                  12                            2                           2                     0.010551565720230071 -0.0024737409096085164  0.999941270808823          1.9641802923841371e-13              1.9244380990501131e-12       
                -7.7068612285040334e-19                14                               1504.9476412339673       -6.8748461051947477e-11     -8.9583677315098634e-24           0                                     0                                            0                                              0                                          -8.0679358861906644e-20            -6.9000676398849667e-19  19680.001270325163   5                    5                    19680                  13                            3                           2                     0.014370839835745291 -0.003358482371214258  0.99989109384901398        1.9978404485906537e-13              2.1242221439091784e-12       
                -7.7070224185042082e-19                15                               2014.4272845592079       -1.2317523226866973e-10     -1.6119000017482616e-23           0                                     0                                            0                                              0                                          -8.0758060559745695e-20            -6.8994418129067512e-19  19680.001270325163   5                    5                    19680                  14                            4                           2                     0.019506624269082218 -0.0045441128830347646  0.99979940120392707        2.0070271018026292e-13              2.3249248540894413e-12       
                -7.6509296089119008e-19                16                               2027.4363775051177       -1.2477129102901548e-10      0                             0                                     0                                            0                                              0                                          -8.0758060559745695e-20            -6.8433490033144438e-19  19520.001280737666   5                    5                    19520                  15                            0                           3                     0.019506624269082218 -0.0045441128830347646  0.99979940120392707        0                                2.3249248540894413e-12       
                -7.6512222420278267e-19                17                               2738.1074609319185       -2.2757323172521122e-10     -2.926331159256392e-23           0                                     0                                            0                                              0                                          -8.0901565136302352e-20            -6.842206590664803e-19  19520.001280737666   5                    5                    19520                  16                            1                           3                     0.026433967315727117 -0.0062291371372683122  0.99963115358740007        2.0153639236251949e-13              2.5264612464519611e-12       
                -7.6517379796217796e-19                18                               3641.6255584813703       -4.0254160745833291e-10     -5.1573759395259704e-23           0                                     0                                            0                                              0                                          -8.1155253251521632e-20            -6.8401854471065625e-19  19520.001280737666   5                    5                    19520                  17                            2                           3                     0.035519261935472619 -0.0083528443088327371  0.99933408428988935        1.9534284457080243e-13              2.7218040910227634e-12       
                -7.6526766379808387e-19                19                               4848.2511107413484       -7.1349414050226595e-10     -9.3865835905957811e-23           0                                     0                                            0                                              0                                          -8.162258607073321e-20            -6.8364507772735068e-19  19520.001280737666   5                    5                    19520                  18                            3                           3                     0.047968662305850937 -0.011204528718653194  0.99878599608363561        2.0114380512736739e-13              2.9229478961501308e-12       
                -7.6543699538792417e-19                20                               6425.5524364354114       -1.2532598992565386e-09     -1.6933158984025064e-22           0                                     0                                            0                                              0                                          -8.2481606693197687e-20            -6.829553886947264e-19  19520.001280737666   5                    5                    19520                  19                            4                           3                     0.064965623719444685 -0.014984884492624008  0.99777498514017993        2.0614545691931358e-13              3.1290933530694442e-12       
                -7.5983907222553377e-19                21                               6467.4834805003266       -1.2696699932423546e-09      0                             0                                     0                                            0                                              0                                          -8.2481606693197687e-20            -6.773574655323361e-19  19360.001291322271   5                    5                    19360                  20                            0                           4                     0.064965623719444685 -0.014984884492624008  0.99777498514017993        0                                3.1290933530694442e-12       
                -7.6011498944248182e-19                22                               8381.6725258758761       -2.1324633571577569e-09     -2.7591721694804792e-22           0                                     0                                            0                                              0                                          -8.3908424890721012e-20            -6.7620656455176076e-19  19360.001291322271   5                    5                    19360                  21                            1                           4                     0.086273289473139211 -0.019767987901752861  0.9960753717353924         1.9408324933784369e-13              3.3231766024072879e-12       
                -7.605080200750513e-19                23                               10243.795563117828       -3.1852388551127629e-09     -3.93030632569535e-22           0                                     0                                            0                                              0                                          -8.6005139333391425e-20            -6.7450288074165996e-19  19360.001291322271   5                    5                    19360                  22                            2                           4                     0.11060735073631478 -0.024559229664773252  0.99356069678775372        1.7044643470770274e-13              3.4936230371149906e-12       
                -7.6104093304801089e-19                24                               11924.438845218781       -4.3161457413001657e-09     -5.3291297295954514e-22           0                                     0                                            0                                              0                                          -8.9025131326149556e-20            -6.7201580172186129e-19  19360.001291322271   5                    5                    19360                  23                            3                           4                     0.13878891935442458 -0.029213593887652361  0.98989100500842941        1.6112415787498972e-13              3.6547471949899806e-12       
                -7.6172465051333321e-19                25                               13101.199776683641       -5.2100553589067833e-09     -6.8371746532233335e-22           0                                     0                                            0                                              0                                          -9.3305674988949596e-20            -6.6841897552438364e-19  19360.001291322271   5                    5                    19360                  24                            4                           4                     0.17174798347539971 -0.033086327530455678  0.98458515380980693        1.6154822695766619e-13              3.816295421947647e-12       
                -7.5620072766505369e-19                26                               13181.93266229481        -5.2744645431376441e-09      0                             0                                     0                                            0                                              0                                          -9.3305674988949596e-20            -6.6289505267610412e-19  19200.001302083292   5                    5                    19200                  25                            0                           5                     0.17174798347539971 -0.033086327530455678  0.98458515380980693        0                                3.816295421947647e-12       
                -7.5701116154129077e-19                27                               13457.987248915882       -5.4976922416946477e-09     -8.1043387623711186e-22           0                                     0                                            0                                              0                                          -9.9279946408008942e-20            -6.577312151332819e-19  19200.001302083292   5                    5                    19200                  26                            1                           5                     0.21072080586620556 -0.035387001335123576  0.9769055748185721         1.7304637923009738e-13              3.9893418011777439e-12       
                -7.5757432808675359e-19                29                               12217.624353547824       -4.5309965942409046e-09     -5.6316654546277858e-22           0                                     0                                            0                                              0                                          -1.041364407815065e-19            -6.5343788730524705e-19  19200.001302083292   5                    5                    19200                  27                            2                           5                     0.23873793008025979 -0.033073804359502301  0.97052064594535148        1.2277180775356522e-13              4.1121136089313094e-12       
                -7.5794380213254338e-19                31                               10271.579076514632       -3.2025404769710735e-09     -3.6947404578979288e-22           0                                     0                                            0                                              0                                          -1.0804753723330133e-19            -6.4989626489924202e-19  19200.001302083292   5                    5                    19200                  28                            3                           5                     0.25979171112809663 -0.028180739702192439  0.96525339302121749        1.0435088878836013e-13              4.2164644977196696e-12       
                -7.5817567611088969e-19                32                               7845.5784918295903       -1.8684012235334392e-09     -2.3187397834629684e-22           0                                     0                                            0                                              0                                          -1.1131207170613943e-19            -6.4686360440475021e-19  19200.001302083292   5                    5                    19200                  29                            4                           5                     0.27664590617085566 -0.020992152761060198  0.9607426149189815         1.0527405445289052e-13              4.3217385521725597e-12       
                -7.527855195953955e-19                33                               7756.2755525916546       -1.8261088398568455e-09      0                             0                                     0                                            0                                              0                                          -1.1131207170613943e-19            -6.4147344788925602e-19  19040.001313025165   5                    5                    19040                  30                            0                           6                     0.27664590617085566 -0.020992152761060198  0.9607426149189815         0                                4.3217385521725597e-12       
                -7.5289379444374367e-19                34                               5652.702213968385        -9.6991218233988055e-10     -1.0827484834817066e-22           0                                     0                                            0                                              0                                          -1.133670610193448e-19            -6.3952673342439889e-19  19040.001313025165   5                    5                    19040                  31                            1                           6                     0.2870321929070741  -0.013755719449307089  0.95782216534040809        9.597197771930763e-14              4.4177105298918679e-12       
                -7.5293407699179554e-19                36                               4439.6682750551254       -5.9830308569267596e-10     -4.0282548051877611e-23           0                                     0                                            0                                              0                                          -1.1411753904551186e-19            -6.3881653794628363e-19  19040.001313025165   5                    5                    19040                  32                            2                           6                     0.29076023028899733 -0.0087297309565224895  0.95675612372208829        6.4342822915317495e-14              4.482053352807185e-12       
                -7.529561522912416e-19                37                               3621.5078138376589       -3.9810630225404612e-10     -2.2075299446098728e-23           0                                     0                                            0                                              0                                          -1.1446086615323761e-19            -6.3849528613800399e-19  19040.001313025165   5                    5                    19040                  33                            3                           6                     0.29244651859371201 -0.0040562314786785937  0.95627327723230304        6.4422181863794269e-14              4.546475534670979e-12       
                -7.5296948619204991e-19                38                               3272.0633795297349       -3.2498522306737207e-10     -1.3333900808307301e-23           0                                     0                                            0                                              0                                          -1.144510633527871e-19            -6.3851842283926281e-19  19040.001313025165   5                    5                    19040                  34                            4                           6                     0.29236383071186883 -0.00051629718155907711  0.95630702388338762        5.6023291434464031e-14              4.6024988261054432e-12       
# Table End
