# ODT 1.0
# Table Start
# Title: mmArchive Data Table, Wed Jun 11 15:42:43 EDT 2014
# Columns: {Oxs_EulerEvolve::Total energy} {Oxs_EulerEvolve::Energy calc count} {Oxs_EulerEvolve::Max dm/dt} Oxs_EulerEvolve::dE/dt {Oxs_EulerEvolve::Delta E} Oxs_Exchange6Ngbr:ErFeDyFe:Energy {Oxs_Exchange6Ngbr:ErFeDyFe:Max Spin Ang} {Oxs_Exchange6Ngbr:ErFeDyFe:Stage Max Spin Ang} {Oxs_Exchange6Ngbr:ErFeDyFe:Run Max Spin Ang} Southampton_CubicAnisotropy8:cubic:Energy Oxs_UZeeman::Energy  Oxs_UZeeman::B       Oxs_UZeeman::Bx      Oxs_UZeeman::By      Oxs_UZeeman::Bz      Oxs_TimeDriver::Iteration {Oxs_TimeDriver::Stage iteration} Oxs_TimeDriver::Stage Oxs_TimeDriver::mx   Oxs_TimeDriver::my   Oxs_TimeDriver::mz   {Oxs_TimeDriver::Last time step} {Oxs_TimeDriver::Simulation time}
# Units:                  J                                 {}                             deg/ns                     J/s                       J                              J                                    deg                                          deg                                            deg                                          J                              J                 mT                   mT                   mT                   mT                        {}                            {}                          {}                   {}                   {}                   {}                          s                                 s                
                -7.8738806000000022e-19                1                                63.757533334107194       -1.2339092299475942e-13      0                             0                                     0                                            0                                              0                                          -8.6087260000000014e-20            -7.013008000000002e-19  20000.001249999961   5                    5                    20000                  0                             0                           0                     0                    0                    1                          0                                0                         
                -7.8738807234304478e-19                2                                71.369125363745312       -1.5461119915475008e-13     -1.2343044547160391e-26           0                                     0                                            0                                              0                                          -8.6087263671314768e-20            -7.0130080867173002e-19  20000.001249999961   5                    5                    20000                  1                             1                           0                     0.00016557646857472786 -5.5192156191575952e-05  0.99999998476912921        1.5684421082599323e-13              1.5684421082599323e-13       
                -7.8738808827550459e-19                3                                64.492569649953239       -1.2625237666653917e-13     -1.593245983065572e-26           0                                     0                                            0                                              0                                          -8.6087278532227237e-20            -7.0130080974327738e-19  20000.001249999961   5                    5                    20000                  2                             2                           0                     0.00033556033818458298 -4.9821821951722583e-05  0.99999994245852086        1.365326817897918e-13              2.9337689261578506e-13       
                -7.8738810215619871e-19                4                                46.634803718671527       -6.6014677505567283e-14     -1.3880694180261346e-26           0                                     0                                            0                                              0                                          -8.6087306934568932e-20            -7.0130079522162983e-19  20000.001249999961   5                    5                    20000                  3                             3                           0                     0.00052214222715842051 -4.0979204844151202e-06  0.99999986367534155        1.7066585223723977e-13              4.6404274485302483e-13       
                -7.8738810670299209e-19                6                                33.369450995219587       -3.3800126272096454e-14     -4.5467933660256688e-27           0                                     0                                            0                                              0                                          -8.6087319925379363e-20            -7.0130078677761272e-19  20000.001249999961   5                    5                    20000                  4                             4                           0                     0.0005922057878962226  3.6450603034713986e-05  0.99999982398181364        9.9457020154020466e-14              5.6349976500704523e-13       
                -7.8177770129052571e-19                7                                33.19304770387032        -3.3443710839719571e-14      0                             0                                     0                                            0                                              0                                          -8.6087319925379363e-20            -6.9569038136514633e-19  19840.001260080608   5                    5                    19840                  5                             0                           1                     0.0005922057878962226  3.6450603034713986e-05  0.99999982398181364        0                                5.6349976500704523e-13       
                -7.8177770310276348e-19                9                                24.203215886297578       -1.7781416259863809e-14     -1.812237834237749e-27           0                                     0                                            0                                              0                                          -8.6087326128459414e-20            -6.9569037697430407e-19  19840.001260080608   5                    5                    19840                  6                             1                           1                     0.00062692161606930788  6.6904419179682632e-05  0.99999980124652321        7.9713644442390314e-14              6.4321340944943554e-13       
                -7.8177770386826016e-19                11                               18.494523611013779       -1.0382608966225232e-14     -7.654966627887917e-28           0                                     0                                            0                                              0                                          -8.6087328374786281e-20            -6.9569037549347387e-19  19840.001260080608   5                    5                    19840                  7                             2                           1                     0.00064281046307504235  8.9666488081018735e-05  0.9999997893772925         6.5713540748096498e-14              7.0892695019753213e-13       
                -7.817777042632631e-19                12                               14.879445687097144       -6.7203780485606745e-15     -3.9500296428741427e-28           0                                     0                                            0                                              0                                          -8.6087328518218373e-20            -6.9569037574504481e-19  19840.001260080608   5                    5                    19840                  8                             3                           1                     0.00064965077343935899  0.00010974498747219215  0.99999978295493164        6.5713540548895601e-14              7.7464049074642773e-13       
                -7.8177770449573026e-19                13                               13.562924914492511       -5.5837622022745552e-15     -2.3246708369697447e-28           0                                     0                                            0                                              0                                          -8.6087327153581801e-20            -6.9569037734214841e-19  19840.001260080608   5                    5                    19840                  9                             4                           1                     0.0006489417550562803  0.00012468579386716439  0.99999978166400183        5.7596803788667959e-14              8.3223729453509563e-13       
                -7.7616729932068395e-19                14                               12.639255517789236       -4.8491228519706042e-15      0                             0                                     0                                            0                                              0                                          -8.6087327153581801e-20            -6.900799721671021e-19  19680.001270325163   5                    5                    19680                  10                            0                           2                     0.0006489417550562803  0.00012468579386716439  0.99999978166400183        0                                8.3223729453509563e-13       
                -7.7616729949677461e-19                15                               12.578748213366495       -4.8028060345487262e-15     -1.7609073365747467e-28           0                                     0                                            0                                              0                                          -8.6087325119172661e-20            -6.9007997437760196e-19  19680.001270325163   5                    5                    19680                  11                            1                           2                     0.0006443005655488585  0.00013584346267918085  0.99999978321164396        5.4780810068724843e-14              8.8701810460382052e-13       
                -7.7616729970177743e-19                16                               13.194279169194362       -5.2843495443084238e-15     -2.050027631776175e-28           0                                     0                                            0                                              0                                          -8.6087322295742101e-20            -6.9007997740603532e-19  19680.001270325163   5                    5                    19680                  12                            2                           2                     0.0006358214252841374  0.00014569013211602236  0.99999978725272765        5.9188762249475072e-14              9.4620686685329553e-13       
                -7.7616729998818575e-19                17                               14.148126971234099       -6.0760046423866664e-15     -2.8640830190852289e-28           0                                     0                                            0                                              0                                          -8.608731841647044e-20            -6.9007998157171528e-19  19680.001270325163   5                    5                    19680                  13                            3                           2                     0.00062222230155857539  0.0001547158730293867  0.99999979445118192        7.0876824363677979e-14              1.0170836912169735e-12       
                -7.7616730041549673e-19                18                               14.972665600626582       -6.8048483312004464e-15     -4.2731101872050208e-28           0                                     0                                            0                                              0                                          -8.6087313271077049e-20            -6.9007998714441967e-19  19680.001270325163   5                    5                    19680                  14                            4                           2                     0.00060163370238055722  0.00016211308755331139  0.99999980587809867        8.8596030454597471e-14              1.1056797216715711e-12       
                -7.7055689510459946e-19                19                               14.304032422545237       -6.2106516584607176e-15      0                             0                                     0                                            0                                              0                                          -8.6087313271077049e-20            -6.844695818335224e-19  19520.001280737666   5                    5                    19520                  15                            0                           3                     0.00060163370238055722  0.00016211308755331139  0.99999980587809867        0                                1.1056797216715711e-12       
                -7.7055689565913209e-19                20                               14.018363214915274       -5.9650599982525082e-15     -5.5453262903029112e-28           0                                     0                                            0                                              0                                          -8.608730741436741e-20            -6.8446958824476466e-19  19520.001280737666   5                    5                    19520                  16                            1                           3                     0.00057410072616334736  0.00016462987830758867  0.99999982165266377        1.1074503806824685e-13              1.216424759739818e-12       
                -7.7055689628509418e-19                21                               12.177608177816923       -4.5013646093678402e-15     -6.2596211821073675e-28           0                                     0                                            0                                              0                                          -8.6087301280293212e-20            -6.84469595004801e-19  19520.001280737666   5                    5                    19520                  17                            2                           3                     0.00054036594588520329  0.00016161189732428035  0.9999998409431069         1.3843129758530855e-13              1.3548560573251265e-12       
                -7.7055689677915289e-19                22                               8.3931243537445912       -2.1382944812174185e-15     -4.9405865931476013e-28           0                                     0                                            0                                              0                                          -8.6087296035744919e-20            -6.8446960074340799e-19  19520.001280737666   5                    5                    19520                  18                            3                           3                     0.00050506098441674451  0.00015130884401592286  0.99999986100950822        1.730391219816357e-13              1.5278951793067621e-12       
                -7.705568969200649e-19                24                               6.0004224746137762       -1.0929086359643096e-15     -1.4091203316638714e-28           0                                     0                                            0                                              0                                          -8.6087294789848897e-20            -6.8446960213021602e-19  19520.001280737666   5                    5                    19520                  19                            4                           3                     0.00049335429489829165  0.00014376515760160331  0.99999986796655083        9.507102092542661e-14              1.6229662002321887e-12       
                -7.6494649126082623e-19                25                               6.0789051802158394       -1.1216850668520367e-15      0                             0                                     0                                            0                                              0                                          -8.6087294789848897e-20            -6.7885919647097734e-19  19360.001291322271   5                    5                    19360                  20                            0                           4                     0.00049335429489829165  0.00014376515760160331  0.99999986796655083        0                                1.6229662002321887e-12       
                -7.6494649131179702e-19                27                               4.5850060888086626       -6.3811658613897318e-16     -5.0970795055036448e-29           0                                     0                                            0                                              0                                          -8.608729459734021e-20            -6.7885919671445678e-19  19360.001291322271   5                    5                    19360                  21                            1                           4                     0.0004889025614139206  0.00013798949140361559  0.99999987096658449        6.8731553158926031e-14              1.6916977533911148e-12       
                -7.6494649133717751e-19                28                               3.6065714069836803       -3.9482920569224215e-16     -2.5380472870892852e-29           0                                     0                                            0                                              0                                          -8.6087294725503662e-20            -6.7885919661167384e-19  19360.001291322271   5                    5                    19360                  22                            2                           4                     0.00048683546154873014  0.00013289257141856518  0.99999987266539081        6.8731553273136051e-14              1.7604293066642509e-12       
                -7.6494649135107819e-19                29                               3.2282640254915607       -3.1634304646981823e-16     -1.390067227475811e-29           0                                     0                                            0                                              0                                          -8.608729505631085e-20            -6.7885919629476727e-19  19360.001291322271   5                    5                    19360                  23                            3                           4                     0.00048679339552961482  0.00012914829802166682  0.99999987317644556        5.9487135949501964e-14              1.8199164426137527e-12       
                -7.6494649136256743e-19                30                               3.1929019221409169       -3.0945061934965751e-16     -1.1489301832625645e-29           0                                     0                                            0                                              0                                          -8.6087295497944245e-20            -6.7885919586462324e-19  19360.001291322271   5                    5                    19360                  24                            4                           4                     0.00048789450491363716  0.00012622751125250983  0.99999987301277571        5.5399989474932248e-14              1.8753164320886851e-12       
                -7.5933608567501739e-19                31                               3.919608642181351        -4.6634316161913733e-16      0                             0                                     0                                            0                                              0                                          -8.6087295497944245e-20            -6.732487901770731e-19  19200.001302083292   5                    5                    19200                  25                            0                           5                     0.00048789450491363716  0.00012622751125250983  0.99999987301277571        0                                1.8753164320886851e-12       
                -7.5933608569483164e-19                32                               4.1051793055879022       -5.1154572721549444e-16     -1.9814198094536554e-29           0                                     0                                            0                                              0                                          -8.6087296197207097e-20            -6.7324878949762447e-19  19200.001302083292   5                    5                    19200                  26                            1                           5                     0.00049045934689068366  0.00012311524945747245  0.99999987214612407        5.8952396862141604e-14              1.9342688289508268e-12       
                -7.5933608572245766e-19                33                               4.4101931780721015       -5.9038515102267366e-16     -2.7626019582385201e-29           0                                     0                                            0                                              0                                          -8.608729714483678e-20            -6.7324878857762083e-19  19200.001302083292   5                    5                    19200                  27                            2                           5                     0.00049461816679153409  0.0001202239486112229  0.99999987044952721        7.069357603676011e-14              2.0049624049875866e-12       
                -7.5933608576396858e-19                34                               4.6947941873626897       -6.6904189831802369e-16     -4.1510971859679565e-29           0                                     0                                            0                                              0                                          -8.6087298432998972e-20            -6.7324878733096966e-19  19200.001302083292   5                    5                    19200                  28                            3                           5                     0.00050097090407691402  0.00011779342694972479  0.99999986757642212        8.8366970045950134e-14              2.0933293750335367e-12       
                -7.593360858234178e-19                35                               4.7366643341034402       -6.8102870611492333e-16     -5.9449228574521854e-29           0                                     0                                            0                                              0                                          -8.608730010106689e-20            -6.7324878572235092e-19  19200.001302083292   5                    5                    19200                  29                            4                           5                     0.00050991635932225372  0.00011641559961660533  0.99999986321634793        1.1045871255743767e-13              2.2037880875909745e-12       
                -7.5372568019082966e-19                36                               5.2282493191303754       -8.297223309609432e-16      0                             0                                     0                                            0                                              0                                          -8.608730010106689e-20            -6.6763838008976278e-19  19040.001313025165   5                    5                    19040                  30                            0                           6                     0.00050991635932225372  0.00011641559961660533  0.99999986321634793        0                                2.2037880875909745e-12       
                -7.5372568027924044e-19                37                               5.0957851709424089       -7.8821087199034654e-16     -8.841076298267582e-29           0                                     0                                            0                                              0                                          -8.6087302411805606e-20            -6.6763837786743482e-19  19040.001313025165   5                    5                    19040                  31                            1                           6                     0.00052247770383071401  0.00011543942379664622  0.99999985684538395        1.380733906967971e-13              2.3418614782877714e-12       
                -7.5372568037501713e-19                38                               4.1238626535016589       -5.16212580818661e-16     -9.577669909049293e-29           0                                     0                                            0                                              0                                          -8.6087305023969715e-20            -6.676383753510474e-19  19040.001313025165   5                    5                    19040                  32                            2                           6                     0.00053768994303002944  0.00011749133014728122  0.99999984854264479        1.7259173837099636e-13              2.514453216658768e-12       
                -7.5372568042236785e-19                40                               2.9319301185926303       -2.6093205181640263e-16     -4.7350657332572163e-29           0                                     0                                            0                                              0                                          -8.6087306390263815e-20            -6.6763837403210403e-19  19040.001313025165   5                    5                    19040                  33                            3                           6                     0.0005465157708806497  0.00012091714543535425  0.99999984334976577        1.3153723564602926e-13              2.6459904523047974e-12       
                -7.5372568043967888e-19                42                               2.0900417361233155       -1.32595906547143e-16     -1.7311079354840335e-29           0                                     0                                            0                                              0                                          -8.6087306933857265e-20            -6.6763837350582162e-19  19040.001313025165   5                    5                    19040                  34                            4                           6                     0.00055059175077484259  0.00012360516441370893  0.99999984078523096        9.5414334113471718e-14              2.741404786418269e-12       
# Table End
