# ODT 1.0
# Table Start
# Title: mmArchive Data Table, Wed Jun 11 15:43:15 EDT 2014
# Columns: {Oxs_EulerEvolve::Total energy} {Oxs_EulerEvolve::Energy calc count} {Oxs_EulerEvolve::Max dm/dt} Oxs_EulerEvolve::dE/dt {Oxs_EulerEvolve::Delta E} Oxs_Exchange6Ngbr:ErFeDyFe:Energy {Oxs_Exchange6Ngbr:ErFeDyFe:Max Spin Ang} {Oxs_Exchange6Ngbr:ErFeDyFe:Stage Max Spin Ang} {Oxs_Exchange6Ngbr:ErFeDyFe:Run Max Spin Ang} Southampton_CubicAnisotropy8:cubic:Energy Oxs_UZeeman::Energy  Oxs_UZeeman::B       Oxs_UZeeman::Bx      Oxs_UZeeman::By      Oxs_UZeeman::Bz      Oxs_TimeDriver::Iteration {Oxs_TimeDriver::Stage iteration} Oxs_TimeDriver::Stage Oxs_TimeDriver::mx   Oxs_TimeDriver::my   Oxs_TimeDriver::mz   {Oxs_TimeDriver::Last time step} {Oxs_TimeDriver::Simulation time}
# Units:                  J                                 {}                             deg/ns                     J/s                       J                              J                                    deg                                          deg                                            deg                                          J                              J                 mT                   mT                   mT                   mT                        {}                            {}                          {}                   {}                   {}                   {}                          s                                 s                
                -7.8601272250000025e-19                1                                63.757533334107194       -1.2339092299475942e-13      0                             0                                     0                                            0                                              0                                          -8.4711922500000018e-20            -7.013008000000002e-19  20000.001249999961   5                    5                    20000                  0                             0                           0                     0                    0                    1                          0                                0                         
                -7.860127369113992e-19                2                                73.965410261804578       -1.6606478233229067e-13     -1.4411399028467716e-26           0                                     0                                            0                                              0                                          -8.4711928239669246e-20            -7.0130080867173002e-19  20000.001249999961   5                    5                    20000                  1                             1                           0                     0.00016557646857472786 -5.5192156191575952e-05  0.99999998476912921        1.5684421082599323e-13              1.5684421082599323e-13       
                -7.8601275889644948e-19                3                                72.478730998173987       -1.5945618204089347e-13     -2.1985050212024365e-26           0                                     0                                            0                                              0                                          -8.4711954993814491e-20            -7.0130080390263492e-19  20000.001249999961   5                    5                    20000                  2                             2                           0                     0.0003709410453291815 -6.5029452024970138e-05  0.99999992908695312        1.5926384885866324e-13              3.161080596846565e-13       
                -7.8601278359700455e-19                4                                59.531033515669563       -1.0757393232333166e-13     -2.4700555081217321e-26           0                                     0                                            0                                              0                                          -8.4712017135212541e-20            -7.0130076646179202e-19  20000.001249999961   5                    5                    20000                  3                             3                           0                     0.00062129140581665941 -3.772968112542683e-05  0.99999980628671137        1.9907981107332906e-13              5.1518787075798551e-13       
                -7.8601279815946449e-19                6                                40.756703642474058       -5.0421795027381665e-14     -1.4562459954831867e-26           0                                     0                                            0                                              0                                          -8.4712082668396581e-20            -7.0130071549106794e-19  20000.001249999961   5                    5                    20000                  4                             4                           0                     0.00080638241618604365  1.2418993464758423e-05  0.99999967479653074        1.8456409809988726e-13              6.997519688578728e-13       
                -7.8040239358398809e-19                7                                40.843867350316131       -5.0637693263242996e-14      0                             0                                     0                                            0                                              0                                          -8.4712082668396581e-20            -6.9569031091559155e-19  19840.001260080608   5                    5                    19840                  5                             0                           1                     0.00080638241618604365  1.2418993464758423e-05  0.99999967479653074        0                                6.997519688578728e-13       
                -7.8040239876890139e-19                9                                27.730429271123658       -2.3341748467456107e-14     -5.1849132772622403e-27           0                                     0                                            0                                              0                                          -8.471211996679039e-20            -6.9569027880211094e-19  19840.001260080608   5                    5                    19840                  6                             1                           1                     0.0008970840126345382  4.9686397082856767e-05  0.99999959638568647        1.3755772677456153e-13              8.3730969563243439e-13       
                -7.8040240060633716e-19                11                               18.98497775589782        -1.094058097556161e-14     -1.8374357413995316e-27           0                                     0                                            0                                              0                                          -8.4712139235829719e-20            -6.9569026137050736e-19  19840.001260080608   5                    5                    19840                  7                             2                           1                     0.00094201234838102487  7.5754440952858964e-05  0.99999955343690017        1.0732355997518832e-13              9.4463325560762261e-13       
                -7.8040240128377791e-19                13                               13.272962828545282       -5.3475635683675831e-15     -6.7744077212410058e-28           0                                     0                                            0                                              0                                          -8.4712148749156462e-20            -6.9569025253462148e-19  19840.001260080608   5                    5                    19840                  8                             3                           1                     0.00096444571935373996  9.387442099475146e-05  0.99999953051591339        8.7029653932911465e-14              1.0316629095405341e-12       
                -7.8040240154696115e-19                15                               9.6548726822967463       -2.8295234785587378e-15     -2.6318329808418642e-28           0                                     0                                            0                                              0                                          -8.4712153057495692e-20            -6.9569024848946553e-19  19840.001260080608   5                    5                    19840                  9                             4                           1                     0.00097524785691011377  0.00010665532969490258  0.99999951875801318        7.223758066016698e-14              1.1039004902007011e-12       
                -7.747919978469243e-19                16                               9.0153945449377453       -2.4671165976047201e-15      0                             0                                     0                                            0                                              0                                          -8.4712153057495692e-20            -6.9007984478942859e-19  19680.001270325163   5                    5                    19680                  10                            0                           2                     0.00097524785691011377  0.00010665532969490258  0.99999951875801318        0                                1.1039004902007011e-12       
                -7.7479199796125887e-19                17                               6.5860586278555866       -1.3166531558214117e-15     -1.1433457504608671e-28           0                                     0                                            0                                              0                                          -8.4712155447126047e-20            -6.9007984251413283e-19  19680.001270325163   5                    5                    19680                  11                            1                           2                     0.00098164987475405805  0.00011604737785440791  0.99999951144814525        7.223758069111133e-14              1.1761380708918125e-12       
                -7.7479199801246482e-19                18                               5.243761900531811        -8.3465332380079757e-16     -5.1205914496677001e-29           0                                     0                                            0                                              0                                          -8.471215599718074e-20            -6.9007984201528404e-19  19680.001270325163   5                    5                    19680                  12                            2                           2                     0.00098399926929528783  0.00012341146937314349  0.99999950825740258        6.7245652132132754e-14              1.2433837230239451e-12       
                -7.7479199804192789e-19                19                               4.8206394962152848       -7.0539034173630164e-16     -2.9463133396347993e-29           0                                     0                                            0                                              0                                          -8.4712155374626473e-20            -6.9007984266730146e-19  19680.001270325163   5                    5                    19680                  13                            3                           2                     0.00098364214145005529  0.00012875781396731373  0.99999950793466019        5.8546829472096128e-14              1.3019305524960413e-12       
                -7.7479199806859672e-19                20                               4.9024808091302265       -7.2954486369360604e-16     -2.6668774225981913e-29           0                                     0                                            0                                              0                                          -8.4712154050670585e-20            -6.9007984401792609e-19  19680.001270325163   5                    5                    19680                  14                            4                           2                     0.00098167931660807814  0.00013303730207210241  0.99999950930327719        5.5958815872424102e-14              1.3578893683684654e-12       
                -7.691815944216047e-19                21                               3.493048541741314        -3.7036457610871874e-16      0                             0                                     0                                            0                                              0                                          -8.4712154050670585e-20            -6.8446944037093417e-19  19520.001280737666   5                    5                    19520                  15                            0                           3                     0.00098167931660807814  0.00013303730207210241  0.99999950930327719        0                                1.3578893683684654e-12       
                -7.6918159443900433e-19                22                               3.7741816782893527       -4.3238020555918593e-16     -1.7399555072188381e-29           0                                     0                                            0                                              0                                          -8.4712152526733558e-20            -6.8446944191227073e-19  19520.001280737666   5                    5                    19520                  16                            1                           3                     0.00097900959989042561  0.00013565192208696901  0.99999951156926026        6.1293889717185253e-14              1.4191832580856508e-12       
                -7.6918159446586883e-19                23                               4.1690890876898017       -5.2759728329786973e-16     -2.6864554238272838e-29           0                                     0                                            0                                              0                                          -8.4712150200754706e-20            -6.8446944426511415e-19  19520.001280737666   5                    5                    19520                  17                            2                           3                     0.00097466462766195212  0.00013821955007060484  0.99999951546199217        7.6617362146481576e-14              1.4958006202321323e-12       
                -7.6918159450887976e-19                24                               4.5495572098840231       -6.2828755990196268e-16     -4.3010920417145836e-29           0                                     0                                            0                                              0                                          -8.4712146832697326e-20            -6.8446944767618241e-19  19520.001280737666   5                    5                    19520                  18                            3                           3                     0.00096805976467399075  0.00014044203023521343  0.9999995215680495         9.577170268310196e-14              1.5915723229152342e-12       
                -7.6918159457421876e-19                25                               4.7396996682859642       -6.8190181507821493e-16     -6.5338972344761727e-29           0                                     0                                            0                                              0                                          -8.4712142236276171e-20            -6.8446945233794254e-19  19520.001280737666   5                    5                    19520                  19                            4                           3                     0.00095866481585681095  0.00014189019886760192  0.99999953041436074        1.1971462835387745e-13              1.7112869512691117e-12       
                -7.6357119080878504e-19                26                               4.0862882092098873       -5.0684852695162e-16      0                             0                                     0                                            0                                              0                                          -8.4712142236276171e-20            -6.7885904857250882e-19  19360.001291322271   5                    5                    19360                  20                            0                           4                     0.00095866481585681095  0.00014189019886760192  0.99999953041436074        0                                1.7112869512691117e-12       
                -7.635711908693225e-19                27                               3.0379388050515743       -2.8014201128726824e-16     -6.0537519384524791e-29           0                                     0                                            0                                              0                                          -8.4712137670654162e-20            -6.7885905319866833e-19  19360.001291322271   5                    5                    19360                  21                            1                           4                     0.00094838022323141444  0.00013903924109129489  0.99999954062141516        1.4964328544234681e-13              1.8609302367114585e-12       
                -7.6357119090039604e-19                29                               2.0526168116216224       -1.2788981608337268e-16     -3.1073453210410665e-29           0                                     0                                            0                                              0                                          -8.4712134528085636e-20            -6.7885905637231035e-19  19360.001291322271   5                    5                    19360                  22                            2                           4                     0.00094107636145470601  0.00013623001426957455  0.9999995479082302         1.4758928819528743e-13              2.008519524906746e-12       
                -7.63571190911367e-19                31                               1.395467221037028        -5.9109798474900167e-17     -1.0971026276820342e-29           0                                     0                                            0                                              0                                          -8.4712133015035807e-20            -6.7885905789633117e-19  19360.001291322271   5                    5                    19360                  23                            3                           4                     0.00093742695668475365  0.00013427712957547486  0.99999955160007592        1.1553614265656795e-13              2.124055667563314e-12       
                -7.635711909153764e-19                33                               0.96454606025239276      -2.8240094297295024e-17     -4.0094070573104556e-30           0                                     0                                            0                                              0                                          -8.4712132282778235e-20            -6.788590586325982e-19  19360.001291322271   5                    5                    19360                  24                            4                           4                     0.00093558023530074556  0.00013292983986878872  0.99999955350954062        9.3857710327461803e-14              2.2179133778907758e-12       
                -7.5796078702036938e-19                34                               1.817483120329056        -1.0026768126169082e-16      0                             0                                     0                                            0                                              0                                          -8.4712132282778235e-20            -6.7324865473759109e-19  19200.001302083292   5                    5                    19200                  25                            0                           5                     0.00093558023530074556  0.00013292983986878872  0.99999955350954062        0                                2.2179133778907758e-12       
                -7.5796078702389172e-19                36                               1.6677942912683448       -8.4431628416011639e-17     -3.5223710438003773e-30           0                                     0                                            0                                              0                                          -8.4712132488160055e-20            -6.7324865453573167e-19  19200.001302083292   5                    5                    19200                  26                            1                           5                     0.00093568329190749544  0.00013113643537495187  0.99999955364990645        5.6629975023776292e-14              2.2745433529145519e-12       
                -7.579607870270954e-19                37                               1.6883541567433507       -8.652613452051834e-17     -3.2037128403317189e-30           0                                     0                                            0                                              0                                          -8.4712132918467597e-20            -6.7324865410862782e-19  19200.001302083292   5                    5                    19200                  27                            2                           5                     0.00093633050150332582  0.00012962039204822596  0.99999955324177303        5.6629975055627504e-14              2.3311733279701793e-12       
                -7.579607870310321e-19                38                               1.8141213977308317       -9.9897102418802224e-17     -3.9366505370708189e-30           0                                     0                                            0                                              0                                          -8.4712133584001482e-20            -6.7324865344703063e-19  19200.001302083292   5                    5                    19200                  28                            3                           5                     0.00093751800198672072  0.00012825636398694233  0.99999955230505011        6.1373583699435961e-14              2.3925469116696154e-12       
                -7.5796078703696185e-19                39                               2.0071622220210132       -1.2228836771820567e-16     -5.9297763800714177e-30           0                                     0                                            0                                              0                                          -8.4712134600129499e-20            -6.7324865243683232e-19  19200.001302083292   5                    5                    19200                  29                            4                           5                     0.00093947277218551486  0.00012693882702031291  0.99999955063862112        7.4452240759111207e-14              2.4669991524287265e-12       
                -7.5235038315806186e-19                40                               3.2292780128748659       -3.1654180235314224e-16      0                             0                                     0                                            0                                              0                                          -8.4712134600129499e-20            -6.6763824855793234e-19  19040.001313025165   5                    5                    19040                  30                            0                           6                     0.00093947277218551486  0.00012693882702031291  0.99999955063862112        0                                2.4669991524287265e-12       
                -7.5235038317982314e-19                41                               3.6897128483724235       -4.1324283917121318e-16     -2.1761284660897222e-29           0                                     0                                            0                                              0                                          -8.471213684236066e-20            -6.6763824633746242e-19  19040.001313025165   5                    5                    19040                  31                            1                           6                     0.00094376045605531621  0.00012391741041559739  0.99999954698023574        9.3065300948889016e-14              2.5600644533776156e-12       
                -7.5235038321397874e-19                42                               4.0534282141923716       -4.9872963114802029e-16     -3.4155604007537485e-29           0                                     0                                            0                                              0                                          -8.4712139758411405e-20            -6.6763824345556729e-19  19040.001313025165   5                    5                    19040                  32                            2                           6                     0.00094964744014566132  0.00012184710134154642  0.99999954166140648        9.6904421484378659e-14              2.6569688748619944e-12       
                -7.5235038326680796e-19                43                               4.263755676567734        -5.5182938225017776e-16     -5.2829213091172286e-29           0                                     0                                            0                                              0                                          -8.4712143845563203e-20            -6.6763823942124471e-19  19040.001313025165   5                    5                    19040                  33                            3                           6                     0.0009580991366093289  0.00012043132923873619  0.99999953377106077        1.2113052685547333e-13              2.7780994017174678e-12       
                -7.5235038333921137e-19                44                               4.1450802198203558       -5.2153814667407449e-16     -7.2403431331622426e-29           0                                     0                                            0                                              0                                          -8.4712149218761545e-20            -6.6763823412044985e-19  19040.001313025165   5                    5                    19040                  34                            4                           6                     0.00096936285390854574  0.00012013390312979831  0.99999952295163741        1.5141315856934167e-13              2.9295125602868092e-12       
# Table End
