# ODT 1.0
# Table Start
# Title: mmArchive Data Table, Tue May 14 17:57:48 EDT 2019
# Columns: {Tuw_CvodeEvolve:evolver:Total energy} {Tuw_CvodeEvolve:evolver:Energy calc count} {Tuw_CvodeEvolve:evolver:Max dm/dt} {Tuw_CvodeEvolve:evolver:CVODE reset count} {Tuw_CvodeEvolve:evolver:Delta E} {Tuw_CvodeEvolve:evolver:Successful calls to CVode} Oxs_UniaxialAnisotropy::Energy Oxs_UniformExchange::Energy {Oxs_UniformExchange::Max Spin Ang} {Oxs_UniformExchange::Stage Max Spin Ang} {Oxs_UniformExchange::Run Max Spin Ang} Oxs_FixedZeeman::Energy Oxs_ScriptUZeeman::Energy Oxs_ScriptUZeeman::B Oxs_ScriptUZeeman::Bx Oxs_ScriptUZeeman::By Oxs_ScriptUZeeman::Bz Oxs_Demag::Energy    Oxs_TimeDriver::Iteration {Oxs_TimeDriver::Stage iteration} Oxs_TimeDriver::Stage Oxs_TimeDriver::mx   Oxs_TimeDriver::my   Oxs_TimeDriver::mz   {Oxs_TimeDriver::Last time step} {Oxs_TimeDriver::Simulation time}
# Units:                     J                                        {}                                    deg/ns                                    {}                                      J                                       counts                                      J                             J                              deg                                    deg                                      deg                              J                        J                      mT                   mT                    mT                    mT                   J                       {}                            {}                          {}                   {}                   {}                   {}                          s                                 s                
                     2.4825473705386758e-16                      1                                       6729.4089937895696                      0                                      2.4825473705386758e-16                        0                                         1.0517299200000006e-16          9.024124033423459e-18             15.947585088932341                     15.947585088932341                       15.947585088932341             -4.4732787776834764e-18      0                       0                    0                     0                     0                     1.3853089979812753e-16    0                             0                           0                    -2.2858113288556637e-17  8.0807002055249045e-17  0.67011027318593974        0                                0                         
                     2.4825473705386018e-16                      7                                       6729.4089938178868                      1                                     -7.3955709864469857e-30                        1                                         1.0517299200000214e-16          9.0241240334221031e-18             15.947585088974209                     15.947585088974209                       15.947585088974209             -4.4732787776834386e-18      9.6238564740482923e-48     1.2396301688405064e-13  1.2396301688405064e-13   0                     0                     1.3853089979811939e-16    1                             1                           0                    -1.1429056644278318e-16  1.147370139679503e-16  0.67011027318593464        1.972932689768074e-23              1.972932689768074e-23       
                     2.4825473697959613e-16                      9                                       6729.4092770140387                      1                                     -7.426405587079812e-26                        2                                         1.0517299202077872e-16          9.0241240198467668e-18             15.947585507635861                     15.947585507635861                       15.947585507635861             -4.4732787773032123e-18      9.6540516239695614e-44     1.2397541318573904e-09  1.2397541318573904e-09   0                     0                     1.3853089971627389e-16    2                             2                           0                    -1.2286235892599192e-16  1.187550416944544e-16  0.67011027312897486        1.9729326897680738e-19              1.9731299830370507e-19       
                     2.482547362369533e-16                      11                                      6729.4121089692517                      1                                     -7.4264282668308371e-25                        3                                         1.0517299222854657e-16          9.0241238840916074e-18             15.947589694239433                     15.947589694239433                       15.947589694239433             -4.4732787735008997e-18      1.0703425288700378e-42     1.3636055820262454e-08  1.3636055820262454e-08   0                     0                     1.3853089889781603e-16    3                             3                           0                    -1.2286235892599192e-16  1.1375482941258263e-16  0.67011027255937783        1.9729326897680739e-18              2.1702456880717791e-18       
                     2.4825472881029321e-16                      13                                      6729.4404278771135                      1                                     -7.4266600933293589e-24                        4                                         1.0517299430644399e-16          9.0241225263598567e-18             15.947631558981172                     15.947631558981172                       15.947631558981172             -4.4732787354721063e-18      9.0498421750497386e-42     1.3759907270431267e-07  1.3759907270431267e-07   0                     0                     1.3853089071296148e-16    4                             4                           0                    -9.7146981476365707e-17 -2.0509799306177577e-16  0.67011026686255193        1.972932689768074e-17              2.189957258575252e-17       
                     2.4825472881029321e-16                      14                                      6729.4404278771135                      1                                      2.4825472881029321e-16                        4                                         1.0517299430644399e-16          9.0241225263598567e-18             15.947631558981172                     15.947631558981172                       15.947631558981172             -4.4732787354721063e-18      9.0498421750497386e-42     1.3759907270431267e-07  1.3759907270431267e-07   0                     0                     1.3853089071296148e-16    5                             0                           1                    -9.7146981476365707e-17 -2.0509799306177577e-16  0.67011026686255193        0                                2.189957258575252e-17       
                     2.48254728809986e-16                      20                                      6729.44042904858                        2                                     -3.0721201877700778e-28                        5                                         1.0517299430652992e-16          9.0241225263036981e-18             15.947631560712987                     15.947631560712987                       15.947631560712987             -4.4732787354705332e-18      9.0453276900297736e-42     1.3760420064346325e-07  1.3760420064346325e-07   0                     0                     1.3853089071262289e-16    6                             1                           1                    -1.3143415140920065e-16 -2.0349078197117411e-16  0.67011026686231712        8.1613686368690814e-22              2.1900388722616207e-17       
                     2.4825472573788652e-16                      22                                      6729.4521435902043                      2                                     -3.0720994801713158e-24                        6                                         1.0517299516611683e-16          9.024121964690886e-18             15.947648878681807                     15.947648878681807                       15.947648878681807             -4.4732787197377564e-18      1.1061724014698536e-41     1.8888359214914224e-07  1.8888359214914224e-07   0                     0                     1.3853088732681653e-16    7                             2                           1                    -8.8575188993156962e-17 -3.8465918768399216e-16  0.67011026450550137        8.1613686368734726e-18              3.0061757359489679e-17       
                     2.4825469501588089e-16                      24                                      6729.569282579273                       2                                     -3.0722005628355586e-23                        7                                         1.051730037643579e-16          9.0241163475620194e-18             15.947822045731078                     15.947822045731078                       15.947822045731078             -4.4732785623366296e-18     -9.1835496157991212e-41     7.0167750720588261e-07  7.0167750720588261e-07   0                     0                     1.3853085346629761e-16    8                             3                           1                     1.7715037798631392e-16 -5.48014337142642e-15  0.67011024092635019        8.1613686368734707e-17              1.1167544372822439e-16       
                     2.4825445610082406e-16                      27                                      6730.4798429217644                      2                                     -2.3891505682478481e-22                        8                                         1.05173070751255e-16          9.0240726382746194e-18             15.949167978243958                     15.949167978243958                       15.949167978243958             -4.4732773341780189e-18     -3.8821346577043995e-38     4.6892287985714986e-06  4.6892287985714986e-06   0                     0                     1.3853059004547245e-16    9                             4                           1                     1.2360524760787001e-14 -2.2320706544611966e-13  0.6701100569445908         6.3463849885603431e-16              7.463139425842587e-16       
                     2.4825445610082406e-16                      28                                      6730.4798429217644                      2                                      2.4825445610082406e-16                        8                                         1.05173070751255e-16          9.0240726382746194e-18             15.949167978243958                     15.949167978243958                       15.949167978243958             -4.4732773341780189e-18     -3.8821346577043995e-38     4.6892287985714986e-06  4.6892287985714986e-06   0                     0                     1.3853059004547245e-16    10                            0                           2                     1.2360524760787001e-14 -2.2320706544611966e-13  0.6701100569445908         0                                7.463139425842587e-16       
                     2.4825445609086583e-16                      34                                      6730.4798808705218                      3                                     -9.9582349408640188e-27                        9                                         1.0517307075405119e-16          9.0240726364527929e-18             15.949168034333525                     15.949168034333525                       15.949168034333525             -4.4732773341266821e-18     -3.8823456000790785e-38     4.6893950247497886e-06  4.6893950247497886e-06   0                     0                     1.3853059003448853e-16    11                            1                           2                     1.2431956364813741e-14 -2.2322144105643003e-13  0.67011005693689984        2.6455717946421535e-20              7.4634039830220512e-16       
                     2.4825435646267389e-16                      37                                      6730.8592499430924                      3                                     -9.9628191940083425e-23                        10                                        1.0517309875568422e-16          9.0240543827762581e-18             15.9497286912265                       15.9497286912265                         15.9497286912265               -4.4732768197667045e-18     -9.9549566812960014e-38     6.3516568076412829e-06  6.3516568076412829e-06   0                     0                     1.3853048014398007e-16    12                            2                           2                     2.3475282347347667e-14 -4.208563494189971e-13  0.67010997988426735        2.6455717946399004e-16              1.0108975777661952e-15       
                     2.4825335911502618e-16                      41                                      6734.6461820814402                      3                                     -9.973476477054292e-22                        11                                        1.0517338126588396e-16          9.0238707919401107e-18             15.95532197008113                      15.95532197008113                        15.95532197008113              -4.4732715990651239e-18     -5.0259614874150871e-36     2.2974274634833115e-05  2.2974274634833115e-05   0                     0                     1.3852937865626724e-16    13                            3                           2                     3.2772819927468077e-13 -5.8470034998875447e-12  0.67010919780786782        2.6455717946399017e-15              3.6564693724060969e-15       
                     2.4825236285060564e-16                      44                                      6738.4254960282005                      3                                     -9.9626442054310799e-22                        12                                        1.0517366690869073e-16          9.0236874120949705e-18             15.960900770035764                     15.960900770035764                       15.960900770035764             -4.473266262112221e-18     -2.3533864074548764e-35     3.959689245567689e-05  3.959689245567689e-05   0                     0                     1.3852827479193214e-16    14                            4                           2                     8.9037494334418026e-13 -1.5869923215081668e-11  0.6701083983166799         2.6455717946399014e-15              6.3020411670459983e-15       
                     2.4825236285060564e-16                      45                                      6738.4254960282005                      3                                      2.4825236285060564e-16                        12                                        1.0517366690869073e-16          9.0236874120949705e-18             15.960900770035764                     15.960900770035764                       15.960900770035764             -4.473266262112221e-18     -2.3533864074548764e-35     3.959689245567689e-05  3.959689245567689e-05   0                     0                     1.3852827479193214e-16    15                            0                           3                     8.9037494334418026e-13 -1.5869923215081668e-11  0.6701083983166799         0                                6.3020411670459983e-15       
                     2.4825236280425937e-16                      51                                      6738.4256717607086                      4                                     -4.6346268435026512e-26                        13                                        1.0517366692205895e-16          9.0236874035644521e-18             15.960901029366608                     15.960901029366608                       15.960901029366608             -4.4732662618611052e-18     -2.3535232725206936e-35     3.9597666162434521e-05  3.9597666162434521e-05   0                     0                     1.3852827474049705e-16    16                            1                           3                     8.903577997592138e-13 -1.5870491185623186e-11  0.67010839827906243        1.2313925507540958e-19              6.3021643063010737e-15       
                     2.4825189833612826e-16                      55                                      6740.1804211441458                      4                                     -4.6446813110923051e-22                        14                                        1.0517380146443257e-16          9.0236013308697075e-18             15.963489157153008                     15.963489157153008                       15.963489157153008             -4.4732637292175622e-18     -4.0301643699663491e-35     4.7334733737378213e-05  4.7334733737378213e-05   0                     0                     1.3852775927004352e-16    17                            2                           3                     1.2754341480107222e-12 -2.2726082415385297e-11  0.67010801888163563        1.2313925507546267e-15              7.5335568570557004e-15       
                     2.4825013606800887e-16                      63                                      6746.8148666745064                      4                                     -1.7622681193937025e-21                        15                                        1.0517431925634519e-16          9.0232731829848871e-18             15.973265286949827                     15.973265286949827                       15.973265286949827             -4.4732538719512674e-18     -1.7101555735900947e-34     7.6674676425236046e-05  7.6674676425236046e-05   0                     0                     1.3852579750063008e-16    18                            3                           3                     3.3411818484449679e-12 -5.9477234098367728e-11  0.67010654223425026        4.6695969179492998e-15              1.2203153775005e-14       
                     2.4824837717521082e-16                      66                                      6753.4254577058718                      4                                     -1.7588927980518204e-21                        16                                        1.0517484679828384e-16          9.0229457003063979e-18             15.982996233878284                     15.982996233878284                       15.982996233878284             -4.4732436526395667e-18     -4.3991738029914489e-34     0.00010601461904708983  0.00010601461904708983   0                     0                     1.3852382832926016e-16    19                            4                           3                     6.216241050709689e-12 -1.1054585246255432e-10  0.67010501135140166        4.6695969179492998e-15              1.68727506929543e-14       
                     2.4824837717521082e-16                      67                                      6753.4254577058718                      4                                      2.4824837717521082e-16                        16                                        1.0517484679828384e-16          9.0229457003063979e-18             15.982996233878284                     15.982996233878284                       15.982996233878284             -4.4732436526395667e-18     -4.3991738029914489e-34     0.00010601461904708983  0.00010601461904708983   0                     0                     1.3852382832926016e-16    20                            0                           4                     6.216241050709689e-12 -1.1054585246255432e-10  0.67010501135140166        0                                1.68727506929543e-14       
                     2.4824837708682092e-16                      73                                      6753.4257896309982                      5                                     -8.838989227775132e-26                        17                                        1.0517484682506504e-16          9.0229456838506454e-18             15.982996722227794                     15.982996722227794                       15.982996722227794             -4.4732436521164164e-18     -4.3993517684547429e-34     0.0001060160948988216  0.0001060160948988216   0                     0                     1.3852382823002163e-16    21                            1                           4                     6.2163953429743865e-12 -1.1054878160476694e-10  0.67010501127303235        2.3488909970175646e-19              1.6872985582054002e-14       
                     2.4824758638567804e-16                      77                                      6756.3766515351936                      5                                     -7.9070114288159431e-22                        18                                        1.0517508800324715e-16          9.0227968006170357e-18             15.987334223733644                     15.987334223733644                       15.987334223733644             -4.4732389273297556e-18     -6.2609368580652462e-34     0.00011916991072324418  0.00011916991072324418   0                     0                     1.3852294050914364e-16    22                            2                           4                     7.870265557326291e-12 -1.3989185315587888e-10  0.67010430348614125        2.0934948222621493e-15              1.8966480404316151e-14       
                     2.4824503962555055e-16                      85                                      6765.8381720804964                      5                                     -2.5467601274899838e-21                        19                                        1.0517588034195125e-16          9.0223146375316033e-18             16.001223261923144                     16.001223261923144                       16.001223261923144             -4.473223177446284e-18     -1.559988917889648e-33     0.0001615271705034903  0.0001615271705034903   0                     0                     1.38520067823514e-16    23                            3                           4                     1.4467594215518635e-11 -2.5680715004832677e-10  0.67010194410743029        6.7413673367524125e-15              2.5707847741068564e-14       
                     2.4824249989559964e-16                      89                                      6775.2496061939082                      5                                     -2.5397299509090746e-21                        20                                        1.0517669297104398e-16          9.0218338852111822e-18             16.015017907198704                     16.015017907198704                       16.015017907198704             -4.4732066733788389e-18     -3.0983627569754763e-33     0.00020388442999393449  0.00020388442999393449   0                     0                     1.3851717971272335e-16    24                            4                           4                     2.2765049337566441e-11 -4.0355368662757008e-10  0.67009947174974882        6.7413673367524125e-15              3.2449215077820976e-14       
                     2.4824249989559964e-16                      90                                      6775.2496061939082                      5                                      2.4824249989559964e-16                        20                                        1.0517669297104398e-16          9.0218338852111822e-18             16.015017907198704                     16.015017907198704                       16.015017907198704             -4.4732066733788389e-18     -3.0983627569754763e-33     0.00020388442999393449  0.00020388442999393449   0                     0                     1.3851717971272335e-16    25                            0                           5                     2.2765049337566441e-11 -4.0355368662757008e-10  0.67009947174974882        0                                3.2449215077820976e-14       
                     2.4824249976043365e-16                      96                                      6775.2501064461294                      6                                     -1.3516599129851013e-25                        21                                        1.0517669301489269e-16          9.0218338596287266e-18             16.015018639879305                     16.015018639879305                       16.015018639879305             -4.4732066724791731e-18     -3.0984636111839452e-33     0.00020388668743459806  0.00020388668743459806   0                     0                     1.3851717955839145e-16    26                            1                           5                     2.2765555073322949e-11 -4.0356230154688421e-10  0.67009947161497707        3.5928284781784594e-19              3.2449574360668794e-14       
                     2.482414976848306e-16                      100                                     6778.9294439325568                      6                                     -1.0020756030556029e-21                        22                                        1.0517702056467192e-16          9.0216415289624507e-18             16.020401056180937                     16.020401056180937                       16.020401056180937             -4.4731999341248414e-18     -3.9250349926179648e-33     0.0002205446730571361  0.0002205446730571361   0                     0                     1.3851603552532109e-16    27                            2                           5                     2.6660469001654879e-11 -4.7233020552309273e-10  0.67009846218974622        2.6512008135103774e-15              3.5100775174179171e-14       
                     2.482382974585548e-16                      108                                     6790.6119912249515                      6                                     -3.2002262757928835e-21                        23                                        1.0517809108716177e-16          9.0210232318434108e-18             16.037461920424722                     16.037461920424722                       16.037461920424722             -4.4731775756208685e-18     -7.5137392375925076e-33     0.00027372938653349733  0.00027372938653349733   0                     0                     1.3851236071517052e-16    28                            3                           5                     4.1120131451862383e-11 -7.2726397094839166e-10  0.6700951128203132         8.4646103061819456e-15              4.3565385480361117e-14       
                     2.4823510829435528e-16                      112                                     6802.2148481482409                      6                                     -3.1891641995216497e-21                        24                                        1.0517919353444674e-16          9.0204072108059575e-18             16.054373544864433                     16.054373544864433                       16.054373544864433             -4.4731540288218786e-18     -1.2720153635546714e-32     0.00032691409923558382  0.00032691409923558382   0                     0                     1.3850866157792447e-16    29                            4                           5                     5.8287988877328154e-11 -1.0292152029265328e-09  0.67009158544080283        8.4646103061819456e-15              5.2029995786543063e-14       
                     2.4823510829435528e-16                      113                                     6802.2148481482409                      6                                      2.4823510829435528e-16                        24                                        1.0517919353444674e-16          9.0204072108059575e-18             16.054373544864433                     16.054373544864433                       16.054373544864433             -4.4731540288218786e-18     -1.2720153635546714e-32     0.00032691409923558382  0.00032691409923558382   0                     0                     1.3850866157792447e-16    30                            0                           6                     5.8287988877328154e-11 -1.0292152029265328e-09  0.67009158544080283        0                                5.2029995786543063e-14       
                     2.482351081156989e-16                      119                                     6802.2154970546617                      7                                     -1.7865638604141027e-25                        25                                        1.0517919359720759e-16          9.0204071763035528e-18             16.054374489750973                     16.054374489750973                       16.054374489750973             -4.4731540274671648e-18     -1.2720496030250814e-32     0.00032691708389167006  0.00032691708389167006   0                     0                     1.3850866136965494e-16    31                            1                           6                     5.8288957489878756e-11 -1.0292334653089972e-09  0.67009158523786205        4.7502279494648275e-19              5.2030470809338009e-14       
                     2.4823390298029247e-16                      123                                     6806.550606161718                       7                                     -1.2051354064262287e-21                        26                                        1.0517962033354275e-16          9.0201706152285216e-18             16.060677625322391                     16.060677625322391                       16.060677625322391             -4.473144796495524e-18     -1.5214973870595954e-32     0.00034693761159343314  0.00034693761159343314   0                     0                     1.3850725682801673e-16    32                            2                           6                     6.5696197675375391e-11 -1.1592412605378569e-09  0.67009020241125195        3.1863661279552154e-15              5.5216836937293224e-14       